[Molden Format]
[Atoms] AU
   Pt    1   18      0.0000000000     0.0000000000    -0.4593385538
   Cl    2   17     -3.1870534818     0.0000000000     2.4336360895
   Cl    3   17      3.1870534818     0.0000000000     2.4336360895
   N     4    7     -2.9768650322     0.0000000000    -3.0226671385
   H     5    1     -3.0737866560     1.5594964481    -4.1330988943
   H     6    1     -3.0737866560    -1.5594964481    -4.1330988943
   N     7    7      2.9768650322     0.0000000000    -3.0226671385
   H     8    1      3.0737866560    -1.5594964481    -4.1330988943
   H     9    1      3.0737866560     1.5594964481    -4.1330988943
   H    10    1     -4.5003756824     0.0000000000    -1.8299434298
   H    11    1      4.5003756824     0.0000000000    -1.8299434298
[GTO]
    1  0
  s      3  0
        30.0000000000         0.2714826390
        27.0000000000        -0.4222675877
        14.4083185640         0.4436158200
  s      1  0
         5.5335788010         1.0000000000
  s      1  0
         1.2986438223         1.0000000000
  s      1  0
         0.5875939311         1.0000000000
  s      1  0
         0.1384558726         1.0000000000
  s      1  0
         0.0492044599         1.0000000000
  p      4  0
        15.5000000000        -0.1567271863
        14.0000000000         0.2385341299
         6.1161212339        -0.3104137973
         1.5715586385         0.5647352509
  p      1  0
         0.7513251078         1.0000000000
  p      1  0
         0.3330646681         1.0000000000
  p      1  0
         0.0570000000         1.0000000000
  d      4  0
         8.3207937611         0.0629457986
         7.4207226520        -0.0902718471
         1.6570410639         0.1681252642
         0.7394356996         0.2504541697
  d      1  0
         0.3051085601         1.0000000000
  d      1  0
         0.1135040527         1.0000000000
  f      1  0
         0.6681300000         1.0000000000

    2  0
  s      7  0
     69507.9909450001         0.0005431490
     10426.1568800000         0.0041990464
      2373.2334061000         0.0215921417
       671.5642007100         0.0845988501
       218.4199979000         0.2475724972
        77.5722497140         0.4701693023
        28.8888152770         0.3743637072
  s      3  0
       127.1052718500         0.0251821666
        39.3395829610         0.1078611246
         7.6740679989        -0.2740882157
  s      2  0
         3.8745627630         1.3213875014
         1.8385832573         0.6863695537
  s      1  0
         0.5022905754         1.0000000000
  s      1  0
         0.1796272342         1.0000000000
  p      5  0
       666.5042328400         0.0023632664
       157.6424169000         0.0188793004
        50.2625209780         0.0872063413
        18.5360781050         0.2528561297
         7.2940532777         0.4350715482
  p      1  0
         2.9433248995         1.0000000000
  p      1  0
         1.0404970818         1.0000000000
  p      1  0
         0.3845641508         1.0000000000
  p      1  0
         0.1306964273         1.0000000000
  d      2  0
         4.6100000000         0.2000000000
         1.0110000000         1.0000000000
  d      1  0
         0.3390000000         1.0000000000
  f      1  0
         0.7060000000         1.0000000000

    3  0
  s      7  0
     69507.9909450001         0.0005431490
     10426.1568800000         0.0041990464
      2373.2334061000         0.0215921417
       671.5642007100         0.0845988501
       218.4199979000         0.2475724972
        77.5722497140         0.4701693023
        28.8888152770         0.3743637072
  s      3  0
       127.1052718500         0.0251821666
        39.3395829610         0.1078611246
         7.6740679989        -0.2740882157
  s      2  0
         3.8745627630         1.3213875014
         1.8385832573         0.6863695537
  s      1  0
         0.5022905754         1.0000000000
  s      1  0
         0.1796272342         1.0000000000
  p      5  0
       666.5042328400         0.0023632664
       157.6424169000         0.0188793004
        50.2625209780         0.0872063413
        18.5360781050         0.2528561297
         7.2940532777         0.4350715482
  p      1  0
         2.9433248995         1.0000000000
  p      1  0
         1.0404970818         1.0000000000
  p      1  0
         0.3845641508         1.0000000000
  p      1  0
         0.1306964273         1.0000000000
  d      2  0
         4.6100000000         0.2000000000
         1.0110000000         1.0000000000
  d      1  0
         0.3390000000         1.0000000000
  f      1  0
         0.7060000000         1.0000000000

    4  0
  s      6  0
     19730.8006470000         0.0002188798
      2957.8958745000         0.0016960709
       673.2213359500         0.0087954604
       190.6824949400         0.0353593826
        62.2954418980         0.1109578922
        22.6541611820         0.2498297255
  s      2  0
         8.9791477428         0.4062389615
         3.6863002370         0.2433821718
  s      1  0
         0.8466007681         1.0000000000
  s      1  0
         0.3364713377         1.0000000000
  s      1  0
         0.1364765368         1.0000000000
  p      4  0
        49.2003805100         0.0055552417
        11.3467905370         0.0380523797
         3.4273972411         0.1495367103
         1.1785525134         0.3494930523
  p      1  0
         0.4164220497         1.0000000000
  p      1  0
         0.1426082601         1.0000000000
  d      1  0
         1.6540000000         1.0000000000
  d      1  0
         0.4690000000         1.0000000000
  f      1  0
         1.0930000000         1.0000000000

    5  0
  s      3  0
        34.0613410000         0.0060251978
         5.1235746000         0.0450210940
         1.1646626000         0.2018972600
  s      1  0
         0.3272304100         1.0000000000
  s      1  0
         0.1030724100         1.0000000000
  p      1  0
         0.8000000000         1.0000000000

    6  0
  s      3  0
        34.0613410000         0.0060251978
         5.1235746000         0.0450210940
         1.1646626000         0.2018972600
  s      1  0
         0.3272304100         1.0000000000
  s      1  0
         0.1030724100         1.0000000000
  p      1  0
         0.8000000000         1.0000000000

    7  0
  s      6  0
     19730.8006470000         0.0002188798
      2957.8958745000         0.0016960709
       673.2213359500         0.0087954604
       190.6824949400         0.0353593826
        62.2954418980         0.1109578922
        22.6541611820         0.2498297255
  s      2  0
         8.9791477428         0.4062389615
         3.6863002370         0.2433821718
  s      1  0
         0.8466007681         1.0000000000
  s      1  0
         0.3364713377         1.0000000000
  s      1  0
         0.1364765368         1.0000000000
  p      4  0
        49.2003805100         0.0055552417
        11.3467905370         0.0380523797
         3.4273972411         0.1495367103
         1.1785525134         0.3494930523
  p      1  0
         0.4164220497         1.0000000000
  p      1  0
         0.1426082601         1.0000000000
  d      1  0
         1.6540000000         1.0000000000
  d      1  0
         0.4690000000         1.0000000000
  f      1  0
         1.0930000000         1.0000000000

    8  0
  s      3  0
        34.0613410000         0.0060251978
         5.1235746000         0.0450210940
         1.1646626000         0.2018972600
  s      1  0
         0.3272304100         1.0000000000
  s      1  0
         0.1030724100         1.0000000000
  p      1  0
         0.8000000000         1.0000000000

    9  0
  s      3  0
        34.0613410000         0.0060251978
         5.1235746000         0.0450210940
         1.1646626000         0.2018972600
  s      1  0
         0.3272304100         1.0000000000
  s      1  0
         0.1030724100         1.0000000000
  p      1  0
         0.8000000000         1.0000000000

   10  0
  s      3  0
        34.0613410000         0.0060251978
         5.1235746000         0.0450210940
         1.1646626000         0.2018972600
  s      1  0
         0.3272304100         1.0000000000
  s      1  0
         0.1030724100         1.0000000000
  p      1  0
         0.8000000000         1.0000000000

   11  0
  s      3  0
        34.0613410000         0.0060251978
         5.1235746000         0.0450210940
         1.1646626000         0.2018972600
  s      1  0
         0.3272304100         1.0000000000
  s      1  0
         0.1030724100         1.0000000000
  p      1  0
         0.8000000000         1.0000000000

[5D]
[9G]
[MO]
Sym= b1   
Ene=  -0.10163651416579E+03
Spin= Alpha
Occup=       2.0000000000
     1    0.000000000000
     2    0.000000000000
     3    0.000000000000
     4    0.000000000000
     5    0.000000000000
     6    0.000000000000
     7   -0.000017865040
     8    0.000000000000
     9    0.000000000000
    10    0.000115399693
    11    0.000000000000
    12    0.000000000000
    13   -0.000165099872
    14    0.000000000000
    15    0.000000000000
    16   -0.000037131991
    17    0.000000000000
    18    0.000000000000
    19    0.000000000000
    20    0.000001176563
    21   -0.000000000000
    22   -0.000000000000
    23    0.000000000000
    24   -0.000000000000
    25   -0.000091767062
    26    0.000000000000
    27    0.000000000000
    28   -0.000000000000
    29    0.000000000000
    30   -0.002665775840
    31    0.000000000000
    32    0.000000000000
    33   -0.000000000000
    34    0.000000000000
    35   -0.000042756877
    36    0.000000000000
    37   -0.000000000000
    38    0.000000000000
    39   -0.000033357328
    40    0.000000000000
    41    0.707270200745
    42   -0.022825306104
    43   -0.007389643567
    44    0.002970239061
    45   -0.003140555666
    46    0.000031332294
    47    0.000000000000
    48   -0.000037538463
    49   -0.000049159139
    50    0.000000000000
    51    0.000054325249
    52    0.000092010373
    53   -0.000000000000
    54   -0.000094393802
    55   -0.000124790699
    56    0.000000000000
    57    0.000105143680
    58   -0.000703262936
    59    0.000000000000
    60    0.000674906608
    61    0.000017226753
    62   -0.000074839856
    63   -0.000000000000
    64    0.000028180301
    65    0.000000000000
    66   -0.000053243702
    67    0.000257348994
    68    0.000000000000
    69   -0.000097064871
    70   -0.000000000000
    71   -0.000009243328
    72   -0.000015317711
    73   -0.000000000000
    74    0.000017422184
    75    0.000000000000
    76    0.000002541912
    77    0.000000000000
    78   -0.707270200745
    79    0.022825306104
    80    0.007389643567
    81   -0.002970239061
    82    0.003140555666
    83    0.000031332294
    84    0.000000000000
    85    0.000037538463
    86   -0.000049159139
    87    0.000000000000
    88   -0.000054325249
    89    0.000092010373
    90    0.000000000000
    91    0.000094393802
    92   -0.000124790699
    93    0.000000000000
    94   -0.000105143680
    95   -0.000703262936
    96    0.000000000000
    97   -0.000674906608
    98   -0.000017226753
    99   -0.000074839856
   100   -0.000000000000
   101   -0.000028180301
   102   -0.000000000000
   103    0.000053243702
   104    0.000257348994
   105    0.000000000000
   106    0.000097064871
   107    0.000000000000
   108    0.000009243328
   109   -0.000015317711
   110   -0.000000000000
   111   -0.000017422184
   112    0.000000000000
   113    0.000002541912
   114    0.000000000000
   115    0.000002950727
   116   -0.000010176733
   117    0.000110819152
   118   -0.000467944073
   119    0.002004968293
   120   -0.000011050523
   121    0.000000000000
   122    0.000012812896
   123    0.000093786150
   124    0.000000000000
   125   -0.000094661277
   126    0.000605613484
   127    0.000000000000
   128    0.000539539689
   129   -0.000000246847
   130   -0.000014876659
   131    0.000000000000
   132   -0.000006096168
   133    0.000000000000
   134   -0.000023861371
   135    0.000103489591
   136   -0.000000000000
   137    0.000007800566
   138   -0.000000000000
   139    0.000000272224
   140    0.000006573732
   141    0.000000000000
   142   -0.000012003581
   143    0.000000000000
   144   -0.000004838666
   145   -0.000000000000
   146    0.000009336453
   147   -0.000049754751
   148    0.000040648233
   149    0.000002198927
   150   -0.000005057597
   151    0.000005258184
   152    0.000009336453
   153   -0.000049754751
   154    0.000040648233
   155    0.000002198927
   156    0.000005057597
   157    0.000005258184
   158   -0.000002950727
   159    0.000010176733
   160   -0.000110819152
   161    0.000467944073
   162   -0.002004968293
   163   -0.000011050523
   164    0.000000000000
   165   -0.000012812896
   166    0.000093786150
   167   -0.000000000000
   168    0.000094661277
   169    0.000605613484
   170   -0.000000000000
   171   -0.000539539689
   172    0.000000246847
   173   -0.000014876659
   174    0.000000000000
   175    0.000006096168
   176    0.000000000000
   177    0.000023861371
   178    0.000103489591
   179   -0.000000000000
   180   -0.000007800566
   181    0.000000000000
   182   -0.000000272224
   183    0.000006573732
   184    0.000000000000
   185    0.000012003581
   186   -0.000000000000
   187   -0.000004838666
   188   -0.000000000000
   189   -0.000009336453
   190    0.000049754751
   191   -0.000040648233
   192    0.000002198927
   193   -0.000005057597
   194   -0.000005258184
   195   -0.000009336453
   196    0.000049754751
   197   -0.000040648233
   198    0.000002198927
   199    0.000005057597
   200   -0.000005258184
   201    0.000020207028
   202    0.000074037160
   203   -0.000039864921
   204    0.000072117838
   205    0.000000000000
   206   -0.000007886592
   207   -0.000020207028
   208   -0.000074037160
   209    0.000039864921
   210    0.000072117838
   211   -0.000000000000
   212    0.000007886592
Sym= a1   
Ene=  -0.10163650940518E+03
Spin= Alpha
Occup=       2.0000000000
     1    0.000046106637
     2   -0.000113389215
     3    0.000392341543
     4   -0.000776519122
     5    0.001038405724
     6    0.001118641951
     7   -0.000000000000
     8    0.000000000000
     9    0.000044979067
    10    0.000000000000
    11   -0.000000000000
    12   -0.000209691913
    13   -0.000000000000
    14   -0.000000000000
    15    0.000373799972
    16   -0.000000000000
    17    0.000000000000
    18    0.000535565202
    19    0.000007368759
    20   -0.000000000000
    21   -0.000000000000
    22   -0.000012368165
    23   -0.000000000000
    24   -0.000001740191
    25    0.000000000000
    26    0.000000000000
    27    0.000110930173
    28    0.000000000000
    29    0.000255909516
    30    0.000000000000
    31   -0.000000000000
    32    0.000489262146
    33    0.000000000000
    34   -0.000011823842
    35    0.000000000000
    36   -0.000000000000
    37    0.000043102347
    38   -0.000000000000
    39   -0.000000000000
    40    0.000000000000
    41    0.707256222118
    42   -0.022788922630
    43   -0.007311485561
    44    0.002730501920
    45   -0.002210842274
    46    0.000030891930
    47    0.000000000000
    48   -0.000037192767
    49   -0.000047216475
    50    0.000000000000
    51    0.000052690765
    52    0.000084041534
    53    0.000000000000
    54   -0.000088150195
    55   -0.000073900836
    56   -0.000000000000
    57    0.000077976557
    58   -0.000400908187
    59   -0.000000000000
    60    0.000295010525
    61    0.000021600186
    62   -0.000051984664
    63    0.000000000000
    64    0.000031569127
    65    0.000000000000
    66   -0.000058222672
    67    0.000169854265
    68    0.000000000000
    69   -0.000110433191
    70    0.000000000000
    71   -0.000002226228
    72   -0.000022889695
    73    0.000000000000
    74    0.000035431767
    75   -0.000000000000
    76   -0.000015846162
    77   -0.000000000000
    78    0.707256222118
    79   -0.022788922630
    80   -0.007311485561
    81    0.002730501920
    82   -0.002210842274
    83   -0.000030891930
    84    0.000000000000
    85   -0.000037192767
    86    0.000047216475
    87    0.000000000000
    88    0.000052690765
    89   -0.000084041534
    90    0.000000000000
    91   -0.000088150195
    92    0.000073900836
    93   -0.000000000000
    94    0.000077976557
    95    0.000400908187
    96   -0.000000000000
    97    0.000295010525
    98    0.000021600186
    99    0.000051984664
   100   -0.000000000000
   101    0.000031569127
   102   -0.000000000000
   103   -0.000058222672
   104   -0.000169854265
   105    0.000000000000
   106   -0.000110433191
   107    0.000000000000
   108   -0.000002226228
   109    0.000022889695
   110    0.000000000000
   111    0.000035431767
   112    0.000000000000
   113    0.000015846162
   114   -0.000000000000
   115    0.000002632847
   116   -0.000009027620
   117    0.000107745784
   118   -0.000296497291
   119   -0.000395365955
   120    0.000007253750
   121    0.000000000000
   122    0.000021505686
   123    0.000034407199
   124    0.000000000000
   125   -0.000127422390
   126   -0.000088170091
   127    0.000000000000
   128   -0.000014088442
   129   -0.000008550163
   130    0.000004012565
   131    0.000000000000
   132    0.000000661582
   133    0.000000000000
   134    0.000000156501
   135    0.000030569325
   136    0.000000000000
   137   -0.000016318487
   138   -0.000000000000
   139   -0.000003400526
   140    0.000010654869
   141   -0.000000000000
   142   -0.000014696007
   143   -0.000000000000
   144    0.000002066308
   145    0.000000000000
   146   -0.000003338306
   147    0.000081696507
   148    0.000030973499
   149    0.000005159986
   150   -0.000012090758
   151    0.000013952962
   152   -0.000003338306
   153    0.000081696507
   154    0.000030973499
   155    0.000005159986
   156    0.000012090758
   157    0.000013952962
   158    0.000002632847
   159   -0.000009027620
   160    0.000107745784
   161   -0.000296497291
   162   -0.000395365955
   163   -0.000007253750
   164    0.000000000000
   165    0.000021505686
   166   -0.000034407199
   167   -0.000000000000
   168   -0.000127422390
   169    0.000088170091
   170   -0.000000000000
   171   -0.000014088442
   172   -0.000008550163
   173   -0.000004012565
   174   -0.000000000000
   175    0.000000661582
   176    0.000000000000
   177    0.000000156501
   178   -0.000030569325
   179    0.000000000000
   180   -0.000016318487
   181   -0.000000000000
   182   -0.000003400526
   183   -0.000010654869
   184   -0.000000000000
   185   -0.000014696007
   186   -0.000000000000
   187   -0.000002066308
   188    0.000000000000
   189   -0.000003338306
   190    0.000081696507
   191    0.000030973499
   192   -0.000005159986
   193    0.000012090758
   194    0.000013952962
   195   -0.000003338306
   196    0.000081696507
   197    0.000030973499
   198   -0.000005159986
   199   -0.000012090758
   200    0.000013952962
   201   -0.000011925898
   202    0.000238551408
   203   -0.000104122207
   204    0.000077915330
   205   -0.000000000000
   206   -0.000014444211
   207   -0.000011925898
   208    0.000238551408
   209   -0.000104122207
   210   -0.000077915330
   211   -0.000000000000
   212   -0.000014444211
Sym= b1   
Ene=  -0.14462398350871E+02
Spin= Alpha
Occup=       2.0000000000
     1   -0.000000000000
     2    0.000000000000
     3   -0.000000000000
     4    0.000000000000
     5   -0.000000000000
     6   -0.000000000000
     7    0.000019222575
     8   -0.000000000000
     9   -0.000000000000
    10    0.000252871490
    11    0.000000000000
    12    0.000000000000
    13   -0.000186138765
    14    0.000000000000
    15   -0.000000000000
    16    0.001278917338
    17   -0.000000000000
    18   -0.000000000000
    19   -0.000000000000
    20   -0.000182894265
    21    0.000000000000
    22    0.000000000000
    23    0.000000000000
    24    0.000000000000
    25    0.000967386940
    26   -0.000000000000
    27   -0.000000000000
    28   -0.000000000000
    29   -0.000000000000
    30   -0.001778309080
    31    0.000000000000
    32   -0.000000000000
    33    0.000000000000
    34    0.000000000000
    35   -0.000273890973
    36   -0.000000000000
    37   -0.000000000000
    38    0.000000000000
    39   -0.000246437289
    40    0.000000000000
    41    0.000008552317
    42   -0.000017061856
    43   -0.000053055086
    44    0.000216439071
    45   -0.000666606776
    46   -0.000003958732
    47   -0.000000000000
    48   -0.000005373003
    49    0.000017476780
    50   -0.000000000000
    51    0.000025647846
    52   -0.000056375940
    53   -0.000000000000
    54   -0.000067892590
    55    0.000112323042
    56    0.000000000000
    57    0.000078735242
    58   -0.000467094564
    59    0.000000000000
    60    0.000310870097
    61    0.000044685694
    62   -0.000028320775
    63   -0.000000000000
    64   -0.000001253413
    65   -0.000000000000
    66   -0.000162010047
    67    0.000056050316
    68   -0.000000000000
    69    0.000023162639
    70   -0.000000000000
    71    0.000054836917
    72    0.000006033649
    73    0.000000000000
    74   -0.000034861979
    75   -0.000000000000
    76    0.000015459274
    77   -0.000000000000
    78   -0.000008552317
    79    0.000017061856
    80    0.000053055086
    81   -0.000216439071
    82    0.000666606776
    83   -0.000003958732
    84   -0.000000000000
    85    0.000005373003
    86    0.000017476780
    87   -0.000000000000
    88   -0.000025647846
    89   -0.000056375940
    90   -0.000000000000
    91    0.000067892590
    92    0.000112323042
    93    0.000000000000
    94   -0.000078735242
    95   -0.000467094564
    96   -0.000000000000
    97   -0.000310870097
    98   -0.000044685694
    99   -0.000028320775
   100    0.000000000000
   101    0.000001253413
   102   -0.000000000000
   103    0.000162010047
   104    0.000056050316
   105    0.000000000000
   106   -0.000023162639
   107   -0.000000000000
   108   -0.000054836917
   109    0.000006033649
   110   -0.000000000000
   111    0.000034861979
   112   -0.000000000000
   113    0.000015459274
   114   -0.000000000000
   115    0.317221342906
   116    0.443453350641
   117    0.023459034877
   118   -0.014918748894
   119    0.012561027166
   120   -0.000301378913
   121   -0.000000000000
   122   -0.000299998949
   123   -0.000486280499
   124    0.000000000000
   125   -0.000293554124
   126    0.000349978328
   127   -0.000000000000
   128   -0.000062715781
   129    0.000035132190
   130   -0.000022752746
   131   -0.000000000000
   132   -0.000080250112
   133    0.000000000000
   134   -0.000068025930
   135   -0.000338189277
   136   -0.000000000000
   137   -0.000135260330
   138   -0.000000000000
   139    0.000047546493
   140   -0.000062805399
   141    0.000000000000
   142    0.000137928660
   143    0.000000000000
   144   -0.000047327209
   145   -0.000000000000
   146    0.000164933810
   147   -0.000705145769
   148   -0.001568863529
   149   -0.000081896080
   150    0.000367755254
   151   -0.000250265743
   152    0.000164933810
   153   -0.000705145769
   154   -0.001568863529
   155   -0.000081896080
   156   -0.000367755254
   157   -0.000250265743
   158   -0.317221342906
   159   -0.443453350641
   160   -0.023459034877
   161    0.014918748894
   162   -0.012561027166
   163   -0.000301378913
   164   -0.000000000000
   165    0.000299998949
   166   -0.000486280499
   167    0.000000000000
   168    0.000293554124
   169    0.000349978328
   170    0.000000000000
   171    0.000062715781
   172   -0.000035132190
   173   -0.000022752746
   174    0.000000000000
   175    0.000080250112
   176   -0.000000000000
   177    0.000068025930
   178   -0.000338189277
   179   -0.000000000000
   180    0.000135260330
   181    0.000000000000
   182   -0.000047546493
   183   -0.000062805399
   184   -0.000000000000
   185   -0.000137928660
   186    0.000000000000
   187   -0.000047327209
   188    0.000000000000
   189   -0.000164933810
   190    0.000705145769
   191    0.001568863529
   192   -0.000081896080
   193    0.000367755254
   194    0.000250265743
   195   -0.000164933810
   196    0.000705145769
   197    0.001568863529
   198   -0.000081896080
   199   -0.000367755254
   200    0.000250265743
   201    0.000101552711
   202   -0.000557445104
   203   -0.001106349527
   204   -0.000296296281
   205    0.000000000000
   206    0.000268343653
   207   -0.000101552711
   208    0.000557445104
   209    0.001106349527
   210   -0.000296296281
   211   -0.000000000000
   212   -0.000268343653
Sym= a1   
Ene=  -0.14462395362236E+02
Spin= Alpha
Occup=       2.0000000000
     1   -0.000003435708
     2    0.000004915027
     3    0.000190803493
     4   -0.000777273573
     5    0.000470248945
     6    0.000526843897
     7   -0.000000000000
     8   -0.000000000000
     9    0.000021459927
    10   -0.000000000000
    11    0.000000000000
    12    0.000205538992
    13    0.000000000000
    14    0.000000000000
    15   -0.000280227067
    16   -0.000000000000
    17   -0.000000000000
    18    0.000311695437
    19   -0.000008579976
    20    0.000000000000
    21   -0.000000000000
    22   -0.000123184733
    23   -0.000000000000
    24    0.000116256075
    25   -0.000000000000
    26   -0.000000000000
    27    0.000582136250
    28    0.000000000000
    29    0.000190830054
    30    0.000000000000
    31    0.000000000000
    32    0.000314518732
    33   -0.000000000000
    34    0.000101150426
    35    0.000000000000
    36   -0.000000000000
    37   -0.000342042146
    38    0.000000000000
    39    0.000000000000
    40   -0.000000000000
    41    0.000007704408
    42   -0.000015501753
    43   -0.000048874364
    44    0.000261849472
    45   -0.000606433313
    46   -0.000000361234
    47   -0.000000000000
    48   -0.000011153290
    49    0.000001401430
    50    0.000000000000
    51    0.000052795394
    52    0.000000063845
    53    0.000000000000
    54   -0.000155583644
    55    0.000000669368
    56   -0.000000000000
    57    0.000254291302
    58   -0.000310306632
    59    0.000000000000
    60    0.000061575367
    61    0.000040181669
    62   -0.000017506966
    63   -0.000000000000
    64   -0.000007624403
    65    0.000000000000
    66   -0.000168767102
    67    0.000099973068
    68    0.000000000000
    69   -0.000002387067
    70   -0.000000000000
    71    0.000052561439
    72   -0.000015846715
    73   -0.000000000000
    74   -0.000009927934
    75    0.000000000000
    76   -0.000003946010
    77    0.000000000000
    78    0.000007704408
    79   -0.000015501753
    80   -0.000048874364
    81    0.000261849472
    82   -0.000606433313
    83    0.000000361234
    84   -0.000000000000
    85   -0.000011153290
    86   -0.000001401430
    87   -0.000000000000
    88    0.000052795394
    89   -0.000000063845
    90   -0.000000000000
    91   -0.000155583644
    92   -0.000000669368
    93    0.000000000000
    94    0.000254291302
    95    0.000310306632
    96    0.000000000000
    97    0.000061575367
    98    0.000040181669
    99    0.000017506966
   100   -0.000000000000
   101   -0.000007624403
   102    0.000000000000
   103   -0.000168767102
   104   -0.000099973068
   105    0.000000000000
   106   -0.000002387067
   107    0.000000000000
   108    0.000052561439
   109    0.000015846715
   110   -0.000000000000
   111   -0.000009927934
   112   -0.000000000000
   113    0.000003946010
   114    0.000000000000
   115    0.317217905640
   116    0.443480140036
   117    0.023229806311
   118   -0.014083893933
   119    0.009443489711
   120   -0.000352857849
   121   -0.000000000000
   122   -0.000286481730
   123   -0.000049318214
   124   -0.000000000000
   125   -0.000351329666
   126   -0.000927436065
   127   -0.000000000000
   128   -0.000103417778
   129    0.000013716369
   130   -0.000030975443
   131   -0.000000000000
   132   -0.000035537313
   133    0.000000000000
   134   -0.000029227053
   135   -0.000180074934
   136   -0.000000000000
   137   -0.000285946541
   138   -0.000000000000
   139    0.000050054711
   140   -0.000038349727
   141    0.000000000000
   142    0.000121020134
   143    0.000000000000
   144   -0.000018828943
   145   -0.000000000000
   146    0.000071022993
   147   -0.000289307026
   148   -0.001338612525
   149    0.000004079055
   150    0.000331375924
   151   -0.000272885508
   152    0.000071022993
   153   -0.000289307026
   154   -0.001338612525
   155    0.000004079055
   156   -0.000331375924
   157   -0.000272885508
   158    0.317217905640
   159    0.443480140036
   160    0.023229806311
   161   -0.014083893933
   162    0.009443489711
   163    0.000352857849
   164   -0.000000000000
   165   -0.000286481730
   166    0.000049318214
   167    0.000000000000
   168   -0.000351329666
   169    0.000927436065
   170    0.000000000000
   171   -0.000103417778
   172    0.000013716369
   173    0.000030975443
   174    0.000000000000
   175   -0.000035537313
   176    0.000000000000
   177   -0.000029227053
   178    0.000180074934
   179    0.000000000000
   180   -0.000285946541
   181   -0.000000000000
   182    0.000050054711
   183    0.000038349727
   184   -0.000000000000
   185    0.000121020134
   186    0.000000000000
   187    0.000018828943
   188    0.000000000000
   189    0.000071022993
   190   -0.000289307026
   191   -0.001338612525
   192   -0.000004079055
   193   -0.000331375924
   194   -0.000272885508
   195    0.000071022993
   196   -0.000289307026
   197   -0.001338612525
   198   -0.000004079055
   199    0.000331375924
   200   -0.000272885508
   201    0.000142946203
   202   -0.000116708408
   203   -0.002004294328
   204   -0.000216641543
   205    0.000000000000