 argument  1 = cisplatin.in



============================== echo of input deck ==============================
# echo input file to output
echo
title "Cisplatin"
memory total 4 gb
scratch_dir /tmp

# Charge of the system
charge 0

# XYZ coordinates in Angstrom units
# Automatic symmetry detection enabled (default tol 0.01). Disable with noautosym.
geometry units angstroms autosym 0.1
 Pt                 0.00000000   -0.00000000   -0.19134710
 Cl                 0.00000000    1.61220407    1.42085566
 Cl                 0.00000000   -1.61220407    1.42085566
 N                  0.00000000    1.40714181   -1.59849021
 H                  0.81649658    1.30951047   -2.16752575
 H                 -0.81649658    1.30951047   -2.16752575
 N                  0.00000000   -1.40714181   -1.59849021
 H                 -0.81649658   -1.30951047   -2.16752575
 H                  0.81649658   -1.30951047   -2.16752575
 H                  0.00000000    2.30951093   -1.16752621
 H                  0.00000000   -2.30951093   -1.16752621
end

dft
  # Exchange-correlation functional
  xc pbe0
  # Semidirect SCF. Cache integrals in memory, but do not use disk
  # 130 megawords is ~1000 megabytes for 64-bit machines
  semidirect memsize 130000000 filesize 0
  # For completely direct SCF without caching, use
  #direct

  # Spin multiplicity 2S + 1, where S = 0, 1/2, 1, 3/2, ...
  mult 1
  # For open-shell singlet calculation, add
  #odft

  # Reduce output during geometry optimization
  noprint "final vectors analysis"

  # Increase the number of SCF iterations
  iterations 100
end

# Basis set definitions
basis spherical
  * library def2-tzvp
end
ecp
  Pt library def2-ecp
end

# Options for the geometry optimizer
driver
  # Max 100 optimization steps
  maxiter 100
  # Print XYZ coordinates of each step
  xyz
end

# Optimize geometry
task dft optimize

# Run property calculation after the geometry optimization to
# create Molden file for plotting molecular orbitals
property
  moldenfile
  molden_norm none
end

task dft property

================================================================================


                                         
                                         


             Northwest Computational Chemistry Package (NWChem) 7.0.2
             --------------------------------------------------------


                    Environmental Molecular Sciences Laboratory
                       Pacific Northwest National Laboratory
                                Richland, WA 99352

                              Copyright (c) 1994-2020
                       Pacific Northwest National Laboratory
                            Battelle Memorial Institute

             NWChem is an open-source computational chemistry package
                        distributed under the terms of the
                      Educational Community License (ECL) 2.0
             A copy of the license is included with this distribution
                              in the LICENSE.TXT file

                                  ACKNOWLEDGMENT
                                  --------------

            This software and its documentation were developed at the
            EMSL at Pacific Northwest National Laboratory, a multiprogram
            national laboratory, operated for the U.S. Department of Energy
            by Battelle under Contract Number DE-AC05-76RL01830. Support
            for this work was provided by the Department of Energy Office
            of Biological and Environmental Research, Office of Basic
            Energy Sciences, and the Office of Advanced Scientific Computing.


           Job information
           ---------------

    hostname        = AJK-ZB-2021
    program         = nwchem
    date            = Fri Jun 25 22:55:29 2021

    compiled        = Thu_May_20_07:57:16_2021
    source          = /home/conda/feedstock_root/build_artifacts/nwchem_1621493927360/work
    nwchem branch   = 7.0.2
    nwchem revision = d613826
    ga revision     = 5.7.2
    use scalapack   = T
    input           = cisplatin.in
    prefix          = cisplatin.
    data base       = ./cisplatin.db
    status          = startup
    nproc           =        1
    time left       =     -1s



           Memory information
           ------------------

    heap     =  134217724 doubles =   1024.0 Mbytes
    stack    =  134217729 doubles =   1024.0 Mbytes
    global   =  268435456 doubles =   2048.0 Mbytes (distinct from heap & stack)
    total    =  536870909 doubles =   4096.0 Mbytes
    verify   = yes
    hardfail = no 


           Directory information
           ---------------------

  0 permanent = .
  0 scratch   = /tmp




                                NWChem Input Module
                                -------------------


                                     Cisplatin
                                     ---------

 Scaling coordinates for geometry "geometry" by  1.889725989
 (inverse scale =  0.529177249)

 C2V symmetry detected

          ------
          auto-z
          ------
  no constraints, skipping    0.0000000000000000     
  no constraints, skipping    0.0000000000000000     


                             Geometry "geometry" -> ""
                             -------------------------

 Output coordinates in angstroms (scale by  1.889725989 to convert to a.u.)

  No.       Tag          Charge          X              Y              Z
 ---- ---------------- ---------- -------------- -------------- --------------
    1 Pt                  78.0000     0.00000000     0.00000000    -0.19134710
    2 Cl                  17.0000    -1.61220407     0.00000000     1.42085566
    3 Cl                  17.0000     1.61220407     0.00000000     1.42085566
    4 N                    7.0000    -1.40714181     0.00000000    -1.59849021
    5 H                    1.0000    -1.30951047     0.81649658    -2.16752575
    6 H                    1.0000    -1.30951047    -0.81649658    -2.16752575
    7 N                    7.0000     1.40714181     0.00000000    -1.59849021
    8 H                    1.0000     1.30951047    -0.81649658    -2.16752575
    9 H                    1.0000     1.30951047     0.81649658    -2.16752575
   10 H                    1.0000    -2.30951093     0.00000000    -1.16752621
   11 H                    1.0000     2.30951093     0.00000000    -1.16752621

      Atomic Mass 
      ----------- 

      Pt               194.964800
      Cl                34.968850
      N                 14.003070
      H                  1.007825


 Effective nuclear repulsion energy (a.u.)    1193.0535416033

            Nuclear Dipole moment (a.u.) 
            ----------------------------
        X                 Y               Z
 ---------------- ---------------- ----------------
     0.0000000000     0.0000000000    -0.0000000000

      Symmetry information
      --------------------

 Group name             C2v       
 Group number             16
 Group order               4
 No. of unique centers     5

      Symmetry unique atoms

     1    2    4    5   10



                                Z-matrix (autoz)
                                -------- 

 Units are Angstrom for bonds and degrees for angles

      Type          Name      I     J     K     L     M      Value
      ----------- --------  ----- ----- ----- ----- ----- ----------
    1 Stretch                  1     2                       2.28000
    2 Stretch                  1     3                       2.28000
    3 Stretch                  1     4                       1.99000
    4 Stretch                  1     7                       1.99000
    5 Stretch                  4     5                       1.00000
    6 Stretch                  4     6                       1.00000
    7 Stretch                  4    10                       1.00000
    8 Stretch                  7     8                       1.00000
    9 Stretch                  7     9                       1.00000
   10 Stretch                  7    11                       1.00000
   11 Bend                     1     4     5               109.47122
   12 Bend                     1     4     6               109.47122
   13 Bend                     1     4    10               109.47122
   14 Bend                     1     7     8               109.47122
   15 Bend                     1     7     9               109.47122
   16 Bend                     1     7    11               109.47122
   17 Bend                     2     1     3                90.00005
   18 Bend                     2     1     4                90.00000
   19 Bend                     3     1     7                90.00000
   20 Bend                     4     1     7                89.99995
   21 Bend                     5     4     6               109.47122
   22 Bend                     5     4    10               109.47122
   23 Bend                     6     4    10               109.47122
   24 Bend                     8     7     9               109.47122
   25 Bend                     8     7    11               109.47122
   26 Bend                     9     7    11               109.47122
   27 Torsion                  2     1     4     5         120.00000
   28 Torsion                  2     1     4     6        -120.00000
   29 Torsion                  2     1     4    10           0.00000
   30 Torsion                  3     1     7     8         120.00000
   31 Torsion                  3     1     7     9        -120.00000
   32 Torsion                  3     1     7    11          -0.00000
   33 Torsion                  4     1     7     8         -60.00000
   34 Torsion                  4     1     7     9          60.00000
   35 Torsion                  4     1     7    11         180.00000
   36 Torsion                  3     1     5     4         179.99989
   37 Torsion                  5     4     1     7         -60.00000
   38 Torsion                  3     1     6     4        -179.99989
   39 Torsion                  6     4     1     7          60.00000
   40 Torsion                  7     1     4    10         180.00000
   41 Torsion                  2     1     8     7         179.99989
   42 Torsion                  2     1     9     7        -179.99989
   43 Torsion                  3     1    10     4         180.00000
   44 Torsion                  2     1    11     7         180.00000


            XYZ format geometry
            -------------------
    11
 geometry
 Pt                    0.00000000     0.00000000    -0.19134710
 Cl                   -1.61220407     0.00000000     1.42085566
 Cl                    1.61220407     0.00000000     1.42085566
 N                    -1.40714181     0.00000000    -1.59849021
 H                    -1.30951047     0.81649658    -2.16752575
 H                    -1.30951047    -0.81649658    -2.16752575
 N                     1.40714181     0.00000000    -1.59849021
 H                     1.30951047    -0.81649658    -2.16752575
 H                     1.30951047     0.81649658    -2.16752575
 H                    -2.30951093     0.00000000    -1.16752621
 H                     2.30951093     0.00000000    -1.16752621

 ==============================================================================
                                internuclear distances
 ------------------------------------------------------------------------------
       center one      |      center two      | atomic units |  angstroms
 ------------------------------------------------------------------------------
    2 Cl               |   1 Pt               |     4.30858  |     2.28000
    3 Cl               |   1 Pt               |     4.30858  |     2.28000
    4 N                |   1 Pt               |     3.76055  |     1.99000
    5 H                |   4 N                |     1.88973  |     1.00000
    6 H                |   4 N                |     1.88973  |     1.00000
    7 N                |   1 Pt               |     3.76055  |     1.99000
    8 H                |   7 N                |     1.88973  |     1.00000
    9 H                |   7 N                |     1.88973  |     1.00000
   10 H                |   4 N                |     1.88973  |     1.00000
   11 H                |   7 N                |     1.88973  |     1.00000
 ------------------------------------------------------------------------------
                         number of included internuclear distances:         10
 ==============================================================================



 ==============================================================================
                                 internuclear angles
 ------------------------------------------------------------------------------
        center 1       |       center 2       |       center 3       |  degrees
 ------------------------------------------------------------------------------
    2 Cl               |   1 Pt               |   3 Cl               |    90.00
    2 Cl               |   1 Pt               |   4 N                |    90.00
    2 Cl               |   1 Pt               |   7 N                |   180.00
    3 Cl               |   1 Pt               |   4 N                |   180.00
    3 Cl               |   1 Pt               |   7 N                |    90.00
    4 N                |   1 Pt               |   7 N                |    90.00
    1 Pt               |   4 N                |   5 H                |   109.47
    1 Pt               |   4 N                |   6 H                |   109.47
    1 Pt               |   4 N                |  10 H                |   109.47
    5 H                |   4 N                |   6 H                |   109.47
    5 H                |   4 N                |  10 H                |   109.47
    6 H                |   4 N                |  10 H                |   109.47
    1 Pt               |   7 N                |   8 H                |   109.47
    1 Pt               |   7 N                |   9 H                |   109.47
    1 Pt               |   7 N                |  11 H                |   109.47
    8 H                |   7 N                |   9 H                |   109.47
    8 H                |   7 N                |  11 H                |   109.47
    9 H                |   7 N                |  11 H                |   109.47
 ------------------------------------------------------------------------------
                            number of included internuclear angles:         18
 ==============================================================================



  library name resolved from: environment
  library file name is: </home/antti/miniconda3/envs/nwchem/share/nwchem/libraries/>
  


 Summary of "ao basis" -> "" (spherical)
 ------------------------------------------------------------------------------
       Tag                 Description            Shells   Functions and Types
 ---------------- ------------------------------  ------  ---------------------
 *                         def2-tzvp                  on all atoms 


  library name resolved from: environment
  library file name is: </home/antti/miniconda3/envs/nwchem/share/nwchem/libraries/>
  
                 ECP       "ecp basis" -> "" (cartesian)
                -----
  Pt (Platinum) Replaces    60 electrons
  --------------------------------------
             Channel    R-exponent     Exponent     Coefficients
         ------------ ---------------------------------------------------------
  1 U L       Both         2.00        3.309569      24.314376

  2 U-s       Both         2.00       13.428651     579.223861
  2 U-s       Both         2.00        6.714326      29.669491
  2 U-s       Both         2.00        3.309569     -24.314376

  3 U-p       Both         2.00       10.365944     280.860774
  3 U-p       Both         2.00        5.182972      26.745382
  3 U-p       Both         2.00        3.309569     -24.314376

  4 U-d       Both         2.00        7.600479     120.396444
  4 U-d       Both         2.00        3.800240      15.810921
  4 U-d       Both         2.00        3.309569     -24.314376



                           NWChem Geometry Optimization
                           ----------------------------




                                     Cisplatin


  no constraints, skipping    0.0000000000000000     
 maximum gradient threshold         (gmax) =   0.000450
 rms gradient threshold             (grms) =   0.000300
 maximum cartesian step threshold   (xmax) =   0.001800
 rms cartesian step threshold       (xrms) =   0.001200
 fixed trust radius                (trust) =   0.300000
 maximum step size to saddle      (sadstp) =   0.100000
 energy precision                  (eprec) =   5.0D-06
 maximum number of steps          (nptopt) =  100
 initial hessian option           (inhess) =    0
 line search option               (linopt) =    1
 hessian update option            (modupd) =    1
 saddle point option              (modsad) =    0
 initial eigen-mode to follow     (moddir) =    0
 initial variable to follow       (vardir) =    0
 follow first negative mode     (firstneg) =    T
 apply conjugacy                    (opcg) =    F
 source of zmatrix                         =   autoz   


          -------------------
          Energy Minimization
          -------------------


 Names of Z-matrix variables 
    1              2              3              4              5         
    6              7              8              9             10         
   11             12             13             14             15         
   16             17             18             19             20         
   21             22             23             24             25         
   26             27             28             29             30         
   31             32             33             34             35         
   36             37             38             39             40         
   41             42             43             44         

 Variables with the same non-blank name are constrained to be equal


 Using diagonal initial Hessian 
 Scaling for Hessian diagonals: bonds = 1.00  angles = 0.25  torsions = 0.10

          --------
          Step   0
          --------


                         Geometry "geometry" -> "geometry"
                         ---------------------------------

 Output coordinates in angstroms (scale by  1.889725989 to convert to a.u.)

  No.       Tag          Charge          X              Y              Z
 ---- ---------------- ---------- -------------- -------------- --------------
    1 Pt                  78.0000     0.00000000     0.00000000    -0.19134710
    2 Cl                  17.0000    -1.61220407     0.00000000     1.42085566
    3 Cl                  17.0000     1.61220407     0.00000000     1.42085566
    4 N                    7.0000    -1.40714181     0.00000000    -1.59849021
    5 H                    1.0000    -1.30951047     0.81649658    -2.16752575
    6 H                    1.0000    -1.30951047    -0.81649658    -2.16752575
    7 N                    7.0000     1.40714181     0.00000000    -1.59849021
    8 H                    1.0000     1.30951047    -0.81649658    -2.16752575
    9 H                    1.0000     1.30951047     0.81649658    -2.16752575
   10 H                    1.0000    -2.30951093     0.00000000    -1.16752621
   11 H                    1.0000     2.30951093     0.00000000    -1.16752621

      Atomic Mass 
      ----------- 

      Pt               194.964800
      Cl                34.968850
      N                 14.003070
      H                  1.007825


 Effective nuclear repulsion energy (a.u.)    1193.0535416033

            Nuclear Dipole moment (a.u.) 
            ----------------------------
        X                 Y               Z
 ---------------- ---------------- ----------------
     0.0000000000     0.0000000000    -0.0000000000

      Symmetry information
      --------------------

 Group name             C2v       
 Group number             16
 Group order               4
 No. of unique centers     5

      Symmetry unique atoms

     1    2    4    5   10


                                 NWChem DFT Module
                                 -----------------


                                     Cisplatin


                      Basis "ao basis" -> "ao basis" (spherical)
                      -----
  Pt (Platinum)
  -------------
            Exponent  Coefficients 
       -------------- ---------------------------------------------------------
  1 S  3.00000000E+01  0.271483
  1 S  2.70000000E+01 -0.422268
  1 S  1.44083186E+01  0.443616

  2 S  5.53357880E+00  1.000000

  3 S  1.29864382E+00  1.000000

  4 S  5.87593931E-01  1.000000

  5 S  1.38455873E-01  1.000000

  6 S  4.92044599E-02  1.000000

  7 P  1.55000000E+01 -0.156727
  7 P  1.40000000E+01  0.238534
  7 P  6.11612123E+00 -0.310414
  7 P  1.57155864E+00  0.564735

  8 P  7.51325108E-01  1.000000

  9 P  3.33064668E-01  1.000000

 10 P  5.70000000E-02  1.000000

 11 D  8.32079376E+00  0.062946
 11 D  7.42072265E+00 -0.090272
 11 D  1.65704106E+00  0.168125
 11 D  7.39435700E-01  0.250454

 12 D  3.05108560E-01  1.000000

 13 D  1.13504053E-01  1.000000

 14 F  6.68130000E-01  1.000000

  Cl (Chlorine)
  -------------
            Exponent  Coefficients 
       -------------- ---------------------------------------------------------
  1 S  6.95079909E+04  0.000543
  1 S  1.04261569E+04  0.004199
  1 S  2.37323341E+03  0.021592
  1 S  6.71564201E+02  0.084599
  1 S  2.18419998E+02  0.247572
  1 S  7.75722497E+01  0.470169
  1 S  2.88888153E+01  0.374364

  2 S  1.27105272E+02  0.025182
  2 S  3.93395830E+01  0.107861
  2 S  7.67406800E+00 -0.274088

  3 S  3.87456276E+00  1.321388
  3 S  1.83858326E+00  0.686370

  4 S  5.02290575E-01  1.000000

  5 S  1.79627234E-01  1.000000

  6 P  6.66504233E+02  0.002363
  6 P  1.57642417E+02  0.018879
  6 P  5.02625210E+01  0.087206
  6 P  1.85360781E+01  0.252856
  6 P  7.29405328E+00  0.435072

  7 P  2.94332490E+00  1.000000

  8 P  1.04049708E+00  1.000000

  9 P  3.84564151E-01  1.000000

 10 P  1.30696427E-01  1.000000

 11 D  4.61000000E+00  0.200000
 11 D  1.01100000E+00  1.000000

 12 D  3.39000000E-01  1.000000

 13 F  7.06000000E-01  1.000000

  N (Nitrogen)
  ------------
            Exponent  Coefficients 
       -------------- ---------------------------------------------------------
  1 S  1.97308006E+04  0.000219
  1 S  2.95789587E+03  0.001696
  1 S  6.73221336E+02  0.008795
  1 S  1.90682495E+02  0.035359
  1 S  6.22954419E+01  0.110958
  1 S  2.26541612E+01  0.249830

  2 S  8.97914774E+00  0.406239
  2 S  3.68630024E+00  0.243382

  3 S  8.46600768E-01  1.000000

  4 S  3.36471338E-01  1.000000

  5 S  1.36476537E-01  1.000000

  6 P  4.92003805E+01  0.005555
  6 P  1.13467905E+01  0.038052
  6 P  3.42739724E+00  0.149537
  6 P  1.17855251E+00  0.349493

  7 P  4.16422050E-01  1.000000

  8 P  1.42608260E-01  1.000000

  9 D  1.65400000E+00  1.000000

 10 D  4.69000000E-01  1.000000

 11 F  1.09300000E+00  1.000000

  H (Hydrogen)
  ------------
            Exponent  Coefficients 
       -------------- ---------------------------------------------------------
  1 S  3.40613410E+01  0.006025
  1 S  5.12357460E+00  0.045021
  1 S  1.16466260E+00  0.201897

  2 S  3.27230410E-01  1.000000

  3 S  1.03072410E-01  1.000000

  4 P  8.00000000E-01  1.000000



 Summary of "ao basis" -> "ao basis" (spherical)
 ------------------------------------------------------------------------------
       Tag                 Description            Shells   Functions and Types
 ---------------- ------------------------------  ------  ---------------------
 Pt                        def2-tzvp                14       40   6s4p3d1f
 Cl                        def2-tzvp                13       37   5s5p2d1f
 N                         def2-tzvp                11       31   5s3p2d1f
 H                         def2-tzvp                 4        6   3s1p




 Summary of "ao basis" -> "ao basis" (spherical)
 ------------------------------------------------------------------------------
       Tag                 Description            Shells   Functions and Types
 ---------------- ------------------------------  ------  ---------------------
 Pt                        def2-tzvp                14       40   6s4p3d1f
 Cl                        def2-tzvp                13       37   5s5p2d1f
 N                         def2-tzvp                11       31   5s3p2d1f
 H                         def2-tzvp                 4        6   3s1p


      Symmetry analysis of basis
      --------------------------

        a1         75
        a2         33
        b1         66
        b2         38

  Caching 1-el integrals 

            General Information
            -------------------
          SCF calculation type: DFT
          Wavefunction type:  closed shell.
          No. of atoms     :    11
          No. of electrons :    72
           Alpha electrons :    36
            Beta electrons :    36
          Charge           :     0
          Spin multiplicity:     1
          Use of symmetry is: on ; symmetry adaption is: on 
          Maximum number of iterations: 100
          AO basis - number of functions:   212
                     number of shells:    86
          Convergence on energy requested:  1.00D-06
          Convergence on density requested:  1.00D-05
          Convergence on gradient requested:  5.00D-04

              XC Information
              --------------
                         PBE0 Method XC Functional
                     Hartree-Fock (Exact) Exchange  0.250          
          PerdewBurkeErnzerhof Exchange Functional  0.750          
            Perdew 1991 LDA Correlation Functional  1.000 local    
           PerdewBurkeErnz. Correlation Functional  1.000 non-local

             Grid Information
             ----------------
          Grid used for XC integration:  medium    
          Radial quadrature: Mura-Knowles        
          Angular quadrature: Lebedev. 
          Tag              B.-S. Rad. Rad. Pts. Rad. Cut. Ang. Pts.
          ---              ---------- --------- --------- ---------
          Pt                  1.35      123           9.0       590
          Cl                  1.00       88          12.0       590
          N                   0.65       49          11.0       434
          H                   0.35       45          12.0       434
          Grid pruning is: on 
          Number of quadrature shells:   350
          Spatial weights used:  Erf1

          Convergence Information
          -----------------------
          Convergence aids based upon iterative change in 
          total energy or number of iterations. 
          Levelshifting, if invoked, occurs when the 
          HOMO/LUMO gap drops below (HL_TOL):  1.00D-02
          DIIS, if invoked, will attempt to extrapolate 
          using up to (NFOCK): 10 stored Fock matrices.

                    Damping( 0%)  Levelshifting(0.5)       DIIS
                  --------------- ------------------- ---------------
          dE  on:    start            ASAP                start   
          dE off:    2 iters        100 iters           100 iters 


      Screening Tolerance Information
      -------------------------------
          Density screening/tol_rho:  1.00D-10
          AO Gaussian exp screening on grid/accAOfunc:  14
          CD Gaussian exp screening on grid/accCDfunc:  20
          XC Gaussian exp screening on grid/accXCfunc:  20
          Schwarz screening/accCoul:  1.00D-08


      Superposition of Atomic Density Guess
      -------------------------------------

 Sum of atomic energies:       -1163.68549793

 #quartets = 2.602D+05 #integrals = 4.512D+06 #direct = 98.9% #cached =  1.1%


 Integral file          = /tmp/cisplatin.aoints.0
 Record size in doubles =  65536        No. of integs per rec  =  65534
 Max. records in memory =      0        Max. records in file   =      0
 No. of bits per label  =      8        No. of bits per value  =     32


      Non-variational initial energy
      ------------------------------

 Total energy =   -1150.749407
 1-e energy   =   -2464.761544
 2-e energy   =     893.782672
 HOMO         =      -0.356648
 LUMO         =      -0.099375


      Symmetry analysis of molecular orbitals - initial
      -------------------------------------------------

  Numbering of irreducible representations: 

     1 a1          2 a2          3 b1          4 b2      

  Orbital symmetries:

     1 a1          2 b1          3 a1          4 b1          5 a1      
     6 b1          7 a1          8 b1          9 a1         10 b1      
    11 b2         12 a2         13 a1         14 a1         15 b1      
    16 b2         17 a1         18 b1         19 a1         20 b1      
    21 a1         22 b2         23 a2         24 b1         25 a1      
    26 b1         27 a1         28 b2         29 a2         30 b1      
    31 a1         32 b1         33 a1         34 b2         35 a2      
    36 a1         37 b1         38 a1         39 b2         40 b1      
    41 a1         42 b2         43 a1         44 b1         45 a2      
    46 a1      

   Time after variat. SCF:      1.3

------------------------------------------------------------
EAF file 0: "/tmp/cisplatin.aoints.0" size=524288 bytes
------------------------------------------------------------
               write      read    awrite     aread      wait
               -----      ----    ------     -----      ----
     calls:        1         0         0         0         0
   data(b): 5.24e+05  0.00e+00  0.00e+00  0.00e+00
   time(s): 0.00e+00  0.00e+00  0.00e+00  0.00e+00  0.00e+00
rate(mb/s): 0.00e+00  0.00e+00
------------------------------------------------------------


 Parallel integral file used       1 records with       0 large values

   Time prior to 1st pass:      1.3

 Integral file          = /tmp/cisplatin.aoints.0
 Record size in doubles =  65536        No. of integs per rec  =  65534
 Max. records in memory =   1982        Max. records in file   =      0
 No. of bits per label  =      8        No. of bits per value  =     32


 #quartets = 1.813D+06 #integrals = 3.914D+07 #direct =  0.0% #cached =100.0%


 Grid_pts file          = /tmp/cisplatin.gridpts.0
 Record size in doubles =  12289        No. of grid_pts per rec  =   3070
 Max. records in memory =     75        Max. recs in file   =   2389246


           Memory utilization after 1st SCF pass: 
           Heap Space remaining (MW):        3.38             3379580
          Stack Space remaining (MW):      134.22           134216364

   convergence    iter        energy       DeltaE   RMS-Dens  Diis-err    time
 ---------------- ----- ----------------- --------- --------- ---------  ------
 d= 0,ls=0.0,diis     1  -1152.4968179442 -1.57D+03  9.66D-03  1.55D+00     7.5
 d= 0,ls=0.0,diis     2  -1152.4182672496  7.86D-02  6.89D-03  1.95D+00     8.7
 d= 0,ls=0.0,diis     3  -1152.6022088664 -1.84D-01  1.86D-03  3.00D-01     9.9
 d= 0,ls=0.0,diis     4  -1152.6237517368 -2.15D-02  8.40D-04  6.19D-02    11.1
 d= 0,ls=0.0,diis     5  -1152.6309360838 -7.18D-03  1.57D-04  3.13D-03    12.3
  Resetting Diis
 d= 0,ls=0.0,diis     6  -1152.6312255254 -2.89D-04  4.72D-05  1.91D-04    13.6
 d= 0,ls=0.0,diis     7  -1152.6312433142 -1.78D-05  1.80D-05  7.91D-06    14.9
 d= 0,ls=0.0,diis     8  -1152.6312428851  4.29D-07  8.15D-06  1.33D-05    16.2


         Total DFT energy =    -1152.631242885086
      One electron energy =    -2471.853856569920
           Coulomb energy =      982.967146734616
    Exchange-Corr. energy =      -83.973998367970
 Nuclear repulsion energy =      420.229465318188

 Numeric. integr. density =       71.999972066380

     Total iterative time =     14.9s



                  Occupations of the irreducible representations
                  ----------------------------------------------

                     irrep           alpha         beta
                     --------     --------     --------
                     a1               15.0         15.0
                     a2                4.0          4.0
                     b1               12.0         12.0
                     b2                5.0          5.0


 center of mass
 --------------
 x =   0.00000000 y =   0.00000000 z =   0.03923259

 moments of inertia (a.u.)
 ------------------
         871.829690294649           0.000000000000          -0.000000000000
           0.000000000000        1772.495955041845           0.000000000000
          -0.000000000000           0.000000000000         919.860973451071

     Multipole analysis of the density
     ---------------------------------

     L   x y z        total         alpha         beta         nuclear
     -   - - -        -----         -----         ----         -------
     0   0 0 0      0.000000    -36.000000    -36.000000     72.000000

     1   1 0 0      0.000000      0.000000      0.000000      0.000000
     1   0 1 0     -0.000000     -0.000000     -0.000000      0.000000
     1   0 0 1     -4.653526    -13.174571    -13.174571     21.695616

     2   2 0 0    -45.097668   -261.132519   -261.132519    477.167370
     2   1 1 0      0.000000      0.000000      0.000000      0.000000
     2   1 0 1      0.000000      0.000000      0.000000      0.000000
     2   0 2 0    -46.599368    -28.061103    -28.061103      9.522838
     2   0 1 1     -0.000000     -0.000000     -0.000000      0.000000
     2   0 0 2    -40.149384   -246.106268   -246.106268    452.063152


 Parallel integral file used     598 records with      24 large values


            General Information
            -------------------
          SCF calculation type: DFT
          Wavefunction type:  closed shell.
          No. of atoms     :    11
          No. of electrons :    72
           Alpha electrons :    36
            Beta electrons :    36
          Charge           :     0
          Spin multiplicity:     1
          Use of symmetry is: on ; symmetry adaption is: on 
          Maximum number of iterations: 100
          AO basis - number of functions:   212
                     number of shells:    86
          Convergence on energy requested:  1.00D-06
          Convergence on density requested:  1.00D-05
          Convergence on gradient requested:  5.00D-04

              XC Information
              --------------
                         PBE0 Method XC Functional
                     Hartree-Fock (Exact) Exchange  0.250          
          PerdewBurkeErnzerhof Exchange Functional  0.750          
            Perdew 1991 LDA Correlation Functional  1.000 local    
           PerdewBurkeErnz. Correlation Functional  1.000 non-local

             Grid Information
             ----------------
          Grid used for XC integration:  medium    
          Radial quadrature: Mura-Knowles        
          Angular quadrature: Lebedev. 
          Tag              B.-S. Rad. Rad. Pts. Rad. Cut. Ang. Pts.
          ---              ---------- --------- --------- ---------
          Pt                  1.35      123           9.0       590
          Cl                  1.00       88          12.0       590
          N                   0.65       49          11.0       434
          H                   0.35       45          12.0       434
          Grid pruning is: on 
          Number of quadrature shells:   350
          Spatial weights used:  Erf1

          Convergence Information
          -----------------------
          Convergence aids based upon iterative change in 
          total energy or number of iterations. 
          Levelshifting, if invoked, occurs when the 
          HOMO/LUMO gap drops below (HL_TOL):  1.00D-02
          DIIS, if invoked, will attempt to extrapolate 
          using up to (NFOCK): 10 stored Fock matrices.

                    Damping( 0%)  Levelshifting(0.5)       DIIS
                  --------------- ------------------- ---------------
          dE  on:    start            ASAP                start   
          dE off:    2 iters        100 iters           100 iters 


      Screening Tolerance Information
      -------------------------------
          Density screening/tol_rho:  1.00D-10
          AO Gaussian exp screening on grid/accAOfunc:  14
          CD Gaussian exp screening on grid/accCDfunc:  20
          XC Gaussian exp screening on grid/accXCfunc:  20
          Schwarz screening/accCoul:  1.00D-08



                            NWChem DFT Gradient Module
                            --------------------------


                                     Cisplatin



  charge          =   0.00
  wavefunction    = closed shell

  Using symmetry


                         DFT ENERGY GRADIENTS

    atom               coordinates                        gradient
                 x          y          z           x          y          z
   1 Pt      0.000000   0.000000  -0.361594    0.000000   0.000000  -0.047098
   2 Cl     -3.046624   0.000000   2.685028    0.005523   0.000000   0.005088
   3 Cl      3.046624   0.000000   2.685028   -0.005523   0.000000   0.005088
   4 N      -2.659112   0.000000  -3.020708    0.001244   0.000000   0.008394
   5 H      -2.474616   1.542955  -4.096030    0.004706  -0.010721   0.009456
   6 H      -2.474616  -1.542955  -4.096030    0.004706   0.010721   0.009456
   7 N       2.659112   0.000000  -3.020708   -0.001244   0.000000   0.008394
   8 H       2.474616  -1.542955  -4.096030   -0.004706   0.010721   0.009456
   9 H       2.474616   1.542955  -4.096030   -0.004706  -0.010721   0.009456
  10 H      -4.364343   0.000000  -2.206305    0.015391   0.000000  -0.008846
  11 H       4.364343   0.000000  -2.206305   -0.015391   0.000000  -0.008846

                 ----------------------------------------
                 |  Time  |  1-e(secs)   |  2-e(secs)   |
                 ----------------------------------------
                 |  CPU   |       0.15   |      19.95   |
                 ----------------------------------------
                 |  WALL  |       0.15   |      19.96   |
                 ----------------------------------------
  no constraints, skipping    0.0000000000000000     

@ Step       Energy      Delta E   Gmax     Grms     Xrms     Xmax   Walltime
@ ---- ---------------- -------- -------- -------- -------- -------- --------
@    0   -1152.63124289  0.0D+00  0.03147  0.00929  0.00000  0.00000     37.3
                                                                    



                                Z-matrix (autoz)
                                -------- 

 Units are Angstrom for bonds and degrees for angles

      Type          Name      I     J     K     L     M      Value     Gradient
      ----------- --------  ----- ----- ----- ----- ----- ---------- ----------
    1 Stretch                  1     2                       2.28000   -0.00031
    2 Stretch                  1     3                       2.28000   -0.00031
    3 Stretch                  1     4                       1.99000   -0.03147
    4 Stretch                  1     7                       1.99000   -0.03147
    5 Stretch                  4     5                       1.00000   -0.01368
    6 Stretch                  4     6                       1.00000   -0.01368
    7 Stretch                  4    10                       1.00000   -0.01770
    8 Stretch                  7     8                       1.00000   -0.01368
    9 Stretch                  7     9                       1.00000   -0.01368
   10 Stretch                  7    11                       1.00000   -0.01770
   11 Bend                     1     4     5               109.47122   -0.00403
   12 Bend                     1     4     6               109.47122   -0.00403
   13 Bend                     1     4    10               109.47122    0.00294
   14 Bend                     1     7     8               109.47122   -0.00403
   15 Bend                     1     7     9               109.47122   -0.00403
   16 Bend                     1     7    11               109.47122    0.00294
   17 Bend                     2     1     3                90.00005   -0.00899
   18 Bend                     2     1     4                90.00000    0.00908
   19 Bend                     3     1     7                90.00000    0.00908
   20 Bend                     4     1     7                89.99995   -0.00917
   21 Bend                     5     4     6               109.47122    0.00192
   22 Bend                     5     4    10               109.47122    0.00159
   23 Bend                     6     4    10               109.47122    0.00159
   24 Bend                     8     7     9               109.47122    0.00192
   25 Bend                     8     7    11               109.47122    0.00159
   26 Bend                     9     7    11               109.47122    0.00159
   27 Torsion                  2     1     4     5         120.00000    0.00129
   28 Torsion                  2     1     4     6        -120.00000   -0.00129
   29 Torsion                  2     1     4    10           0.00000    0.00000
   30 Torsion                  3     1     7     8         120.00000    0.00129
   31 Torsion                  3     1     7     9        -120.00000   -0.00129
   32 Torsion                  3     1     7    11          -0.00000   -0.00000
   33 Torsion                  4     1     7     8         -60.00000    0.00129
   34 Torsion                  4     1     7     9          60.00000   -0.00129
   35 Torsion                  4     1     7    11         180.00000    0.00000
   36 Torsion                  3     1     5     4         179.99989   -0.00021
   37 Torsion                  5     4     1     7         -60.00000    0.00129
   38 Torsion                  3     1     6     4        -179.99989    0.00021
   39 Torsion                  6     4     1     7          60.00000   -0.00129
   40 Torsion                  7     1     4    10         180.00000   -0.00000
   41 Torsion                  2     1     8     7         179.99989   -0.00021
   42 Torsion                  2     1     9     7        -179.99989    0.00021
   43 Torsion                  3     1    10     4         180.00000   -0.00000
   44 Torsion                  2     1    11     7         180.00000   -0.00000

  no constraints, skipping    0.0000000000000000     
  no constraints, skipping    0.0000000000000000     
  no constraints, skipping    0.0000000000000000     
  no constraints, skipping    0.0000000000000000     
  no constraints, skipping    0.0000000000000000     
  no constraints, skipping    0.0000000000000000     
  no constraints, skipping    0.0000000000000000     
  no constraints, skipping    0.0000000000000000     

                                 NWChem DFT Module
                                 -----------------


                                     Cisplatin




 Summary of "ao basis" -> "ao basis" (spherical)
 ------------------------------------------------------------------------------
       Tag                 Description            Shells   Functions and Types
 ---------------- ------------------------------  ------  ---------------------
 Pt                        def2-tzvp                14       40   6s4p3d1f
 Cl                        def2-tzvp                13       37   5s5p2d1f
 N                         def2-tzvp                11       31   5s3p2d1f
 H                         def2-tzvp                 4        6   3s1p


      Symmetry analysis of basis
      --------------------------

        a1         75
        a2         33
        b1         66
        b2         38

  Caching 1-el integrals 

            General Information
            -------------------
          SCF calculation type: DFT
          Wavefunction type:  closed shell.
          No. of atoms     :    11
          No. of electrons :    72
           Alpha electrons :    36
            Beta electrons :    36
          Charge           :     0
          Spin multiplicity:     1
          Use of symmetry is: on ; symmetry adaption is: on 
          Maximum number of iterations: 100
          AO basis - number of functions:   212
                     number of shells:    86
          Convergence on energy requested:  1.00D-06
          Convergence on density requested:  1.00D-05
          Convergence on gradient requested:  5.00D-04

              XC Information
              --------------
                         PBE0 Method XC Functional
                     Hartree-Fock (Exact) Exchange  0.250          
          PerdewBurkeErnzerhof Exchange Functional  0.750          
            Perdew 1991 LDA Correlation Functional  1.000 local    
           PerdewBurkeErnz. Correlation Functional  1.000 non-local

             Grid Information
             ----------------
          Grid used for XC integration:  medium    
          Radial quadrature: Mura-Knowles        
          Angular quadrature: Lebedev. 
          Tag              B.-S. Rad. Rad. Pts. Rad. Cut. Ang. Pts.
          ---              ---------- --------- --------- ---------
          Pt                  1.35      123           9.0       590
          Cl                  1.00       88          12.0       590
          N                   0.65       49          11.0       434
          H                   0.35       45          12.0       434
          Grid pruning is: on 
          Number of quadrature shells:   350
          Spatial weights used:  Erf1

          Convergence Information
          -----------------------
          Convergence aids based upon iterative change in 
          total energy or number of iterations. 
          Levelshifting, if invoked, occurs when the 
          HOMO/LUMO gap drops below (HL_TOL):  1.00D-02
          DIIS, if invoked, will attempt to extrapolate 
          using up to (NFOCK): 10 stored Fock matrices.

                    Damping( 0%)  Levelshifting(0.5)       DIIS
                  --------------- ------------------- ---------------
          dE  on:    start            ASAP                start   
          dE off:    2 iters        100 iters           100 iters 


      Screening Tolerance Information
      -------------------------------
          Density screening/tol_rho:  1.00D-10
          AO Gaussian exp screening on grid/accAOfunc:  14
          CD Gaussian exp screening on grid/accCDfunc:  20
          XC Gaussian exp screening on grid/accXCfunc:  20
          Schwarz screening/accCoul:  1.00D-08


 Loading old vectors from job with title :

Cisplatin


      Symmetry analysis of molecular orbitals - initial
      -------------------------------------------------

  Numbering of irreducible representations: 

     1 a1          2 a2          3 b1          4 b2      

  Orbital symmetries:

     1 b1          2 a1          3 a1          4 b1          5 b1      
     6 a1          7 a1          8 b1          9 b2         10 a2      
    11 a1         12 b1         13 a1         14 a1         15 b1      
    16 b2         17 a1         18 b1         19 a1         20 b1      
    21 a1         22 b2         23 a2         24 b1         25 a1      
    26 b1         27 a1         28 b1         29 a1         30 b2      
    31 a2         32 a1         33 b1         34 a1         35 b2      
    36 a2         37 a1         38 b1         39 b2         40 b1      
    41 b2         42 a1         43 b1         44 a2         45 a1      
    46 a1      

   Time after variat. SCF:     37.5
   Time prior to 1st pass:     37.5

 Integral file          = /tmp/cisplatin.aoints.0
 Record size in doubles =  65536        No. of integs per rec  =  65534
 Max. records in memory =   1982        Max. records in file   =      0
 No. of bits per label  =      8        No. of bits per value  =     32


 #quartets = 1.785D+06 #integrals = 3.843D+07 #direct =  0.0% #cached =100.0%


 Grid_pts file          = /tmp/cisplatin.gridpts.0
 Record size in doubles =  12289        No. of grid_pts per rec  =   3070
 Max. records in memory =     75        Max. recs in file   =   2389235


           Memory utilization after 1st SCF pass: 
           Heap Space remaining (MW):        3.38             3379580
          Stack Space remaining (MW):      134.22           134216364

   convergence    iter        energy       DeltaE   RMS-Dens  Diis-err    time
 ---------------- ----- ----------------- --------- --------- ---------  ------
 d= 0,ls=0.0,diis     1  -1152.6361865938 -1.57D+03  8.32D-04  3.77D-01    43.4
 d= 0,ls=0.0,diis     2  -1152.6404316504 -4.25D-03  4.75D-04  9.49D-03    44.6
 d= 0,ls=0.0,diis     3  -1152.6393482269  1.08D-03  2.93D-04  2.12D-02    45.9
 d= 0,ls=0.0,diis     4  -1152.6414040688 -2.06D-03  3.70D-05  4.74D-05    47.1
 d= 0,ls=0.0,diis     5  -1152.6414055934 -1.52D-06  2.20D-05  3.54D-05    48.3
 d= 0,ls=0.0,diis     6  -1152.6414092404 -3.65D-06  4.54D-06  2.54D-06    49.6
 d= 0,ls=0.0,diis     7  -1152.6414095058 -2.65D-07  7.70D-07  2.20D-08    50.8


         Total DFT energy =    -1152.641409505763
      One electron energy =    -2463.764987033274
           Coulomb energy =      978.938465970293
    Exchange-Corr. energy =      -83.892157532098
 Nuclear repulsion energy =      416.077269089316

 Numeric. integr. density =       71.999960217632

     Total iterative time =     13.3s



                  Occupations of the irreducible representations
                  ----------------------------------------------

                     irrep           alpha         beta
                     --------     --------     --------
                     a1               15.0         15.0
                     a2                4.0          4.0
                     b1               12.0         12.0
                     b2                5.0          5.0


 center of mass
 --------------
 x =   0.00000000 y =   0.00000000 z =   0.00399942

 moments of inertia (a.u.)
 ------------------
         831.616962012505           0.000000000000          -0.000000000000
           0.000000000000        1802.907308427347           0.000000000000
          -0.000000000000           0.000000000000         991.143709314264

     Multipole analysis of the density
     ---------------------------------

     L   x y z        total         alpha         beta         nuclear
     -   - - -        -----         -----         ----         -------
     0   0 0 0      0.000000    -36.000000    -36.000000     72.000000

     1   1 0 0     -0.000000     -0.000000     -0.000000     -0.000000
     1   0 1 0     -0.000000     -0.000000     -0.000000      0.000000
     1   0 0 1     -4.455996    -11.275362    -11.275362     18.094728

     2   2 0 0    -44.272832   -280.236825   -280.236825    516.200819
     2   1 1 0     -0.000000     -0.000000     -0.000000      0.000000
     2   1 0 1      0.000000      0.000000      0.000000      0.000000
     2   0 2 0    -46.557826    -28.203717    -28.203717      9.849608
     2   0 1 1     -0.000000     -0.000000     -0.000000      0.000000
     2   0 0 2    -39.967116   -235.387396   -235.387396    430.807675


 Parallel integral file used     587 records with      24 large values

 Line search: 
     step= 1.00 grad=-1.6D-02 hess= 5.9D-03 energy=  -1152.641410 mode=downhill
 new step= 1.36                   predicted energy=  -1152.642189
  no constraints, skipping    0.0000000000000000     
  no constraints, skipping    0.0000000000000000     
  no constraints, skipping    0.0000000000000000     
  no constraints, skipping    0.0000000000000000     
  no constraints, skipping    0.0000000000000000     
  no constraints, skipping    0.0000000000000000     
  no constraints, skipping    0.0000000000000000     
  no constraints, skipping    0.0000000000000000     

          --------
          Step   1
          --------


                         Geometry "geometry" -> "geometry"
                         ---------------------------------

 Output coordinates in angstroms (scale by  1.889725989 to convert to a.u.)

  No.       Tag          Charge          X              Y              Z
 ---- ---------------- ---------- -------------- -------------- --------------
    1 Pt                  78.0000     0.00000000     0.00000000    -0.20570435
    2 Cl                  17.0000    -1.67654611     0.00000000     1.34038873
    3 Cl                  17.0000     1.67654611     0.00000000     1.34038873
    4 N                    7.0000    -1.51981093     0.00000000    -1.58603097
    5 H                    1.0000    -1.50803671     0.83520493    -2.18425013
    6 H                    1.0000    -1.50803671    -0.83520493    -2.18425013
    7 N                    7.0000     1.51981093     0.00000000    -1.58603097
    8 H                    1.0000     1.50803671    -0.83520493    -2.18425013
    9 H                    1.0000     1.50803671     0.83520493    -2.18425013
   10 H                    1.0000    -2.41106638     0.00000000    -1.05889115
   11 H                    1.0000     2.41106638     0.00000000    -1.05889115

      Atomic Mass 
      ----------- 

      Pt               194.964800
      Cl                34.968850
      N                 14.003070
      H                  1.007825


 Effective nuclear repulsion energy (a.u.)    1177.7902614906

            Nuclear Dipole moment (a.u.) 
            ----------------------------
        X                 Y               Z
 ---------------- ---------------- ----------------
    -0.0000000000     0.0000000000    -6.6725066672

      Symmetry information
      --------------------

 Group name             C2v       
 Group number             16
 Group order               4
 No. of unique centers     5

      Symmetry unique atoms

     1    2    4    5   10


                                 NWChem DFT Module
                                 -----------------


                                     Cisplatin




 Summary of "ao basis" -> "ao basis" (spherical)
 ------------------------------------------------------------------------------
       Tag                 Description            Shells   Functions and Types
 ---------------- ------------------------------  ------  ---------------------
 Pt                        def2-tzvp                14       40   6s4p3d1f
 Cl                        def2-tzvp                13       37   5s5p2d1f
 N                         def2-tzvp                11       31   5s3p2d1f
 H                         def2-tzvp                 4        6   3s1p


      Symmetry analysis of basis
      --------------------------

        a1         75
        a2         33
        b1         66
        b2         38

  Caching 1-el integrals 

            General Information
            -------------------
          SCF calculation type: DFT
          Wavefunction type:  closed shell.
          No. of atoms     :    11
          No. of electrons :    72
           Alpha electrons :    36
            Beta electrons :    36
          Charge           :     0
          Spin multiplicity:     1
          Use of symmetry is: on ; symmetry adaption is: on 
          Maximum number of iterations: 100
          AO basis - number of functions:   212
                     number of shells:    86
          Convergence on energy requested:  1.00D-06
          Convergence on density requested:  1.00D-05
          Convergence on gradient requested:  5.00D-04

              XC Information
              --------------
                         PBE0 Method XC Functional
                     Hartree-Fock (Exact) Exchange  0.250          
          PerdewBurkeErnzerhof Exchange Functional  0.750          
            Perdew 1991 LDA Correlation Functional  1.000 local    
           PerdewBurkeErnz. Correlation Functional  1.000 non-local

             Grid Information
             ----------------
          Grid used for XC integration:  medium    
          Radial quadrature: Mura-Knowles        
          Angular quadrature: Lebedev. 
          Tag              B.-S. Rad. Rad. Pts. Rad. Cut. Ang. Pts.
          ---              ---------- --------- --------- ---------
          Pt                  1.35      123           9.0       590
          Cl                  1.00       88          12.0       590
          N                   0.65       49          11.0       434
          H                   0.35       45          12.0       434
          Grid pruning is: on 
          Number of quadrature shells:   350
          Spatial weights used:  Erf1

          Convergence Information
          -----------------------
          Convergence aids based upon iterative change in 
          total energy or number of iterations. 
          Levelshifting, if invoked, occurs when the 
          HOMO/LUMO gap drops below (HL_TOL):  1.00D-02
          DIIS, if invoked, will attempt to extrapolate 
          using up to (NFOCK): 10 stored Fock matrices.

                    Damping( 0%)  Levelshifting(0.5)       DIIS
                  --------------- ------------------- ---------------
          dE  on:    start            ASAP                start   
          dE off:    2 iters        100 iters           100 iters 


      Screening Tolerance Information
      -------------------------------
          Density screening/tol_rho:  1.00D-10
          AO Gaussian exp screening on grid/accAOfunc:  14
          CD Gaussian exp screening on grid/accCDfunc:  20
          XC Gaussian exp screening on grid/accXCfunc:  20
          Schwarz screening/accCoul:  1.00D-08


 Loading old vectors from job with title :

Cisplatin


      Symmetry analysis of molecular orbitals - initial
      -------------------------------------------------

  Numbering of irreducible representations: 

     1 a1          2 a2          3 b1          4 b2      

  Orbital symmetries:

     1 b1          2 a1          3 b1          4 a1          5 b1      
     6 a1          7 a1          8 b1          9 a1         10 b1      
    11 b2         12 a2         13 a1         14 b1         15 a1      
    16 b2         17 a1         18 b1         19 a1         20 b1      
    21 a1         22 b2         23 a2         24 b1         25 a1      
    26 b1         27 a1         28 b1         29 a1         30 b2      
    31 a2         32 b1         33 a1         34 a1         35 b2      
    36 a2         37 a1         38 b1         39 b2         40 b1      
    41 b2         42 a1         43 a2         44 b1         45 a1      
    46 a1      

   Time after variat. SCF:     51.0
   Time prior to 1st pass:     51.0

 Integral file          = /tmp/cisplatin.aoints.0
 Record size in doubles =  65536        No. of integs per rec  =  65534
 Max. records in memory =   1982        Max. records in file   =      0
 No. of bits per label  =      8        No. of bits per value  =     32


 #quartets = 1.777D+06 #integrals = 3.807D+07 #direct =  0.0% #cached =100.0%


 Grid_pts file          = /tmp/cisplatin.gridpts.0
 Record size in doubles =  12289        No. of grid_pts per rec  =   3070
 Max. records in memory =     75        Max. recs in file   =   2389225


           Memory utilization after 1st SCF pass: 
           Heap Space remaining (MW):        3.38             3379580
          Stack Space remaining (MW):      134.22           134216364

   convergence    iter        energy       DeltaE   RMS-Dens  Diis-err    time
 ---------------- ----- ----------------- --------- --------- ---------  ------
 d= 0,ls=0.0,diis     1  -1152.6417194019 -1.57D+03  2.93D-04  4.44D-02    56.9
 d= 0,ls=0.0,diis     2  -1152.6422522528 -5.33D-04  1.70D-04  1.21D-03    58.1
 d= 0,ls=0.0,diis     3  -1152.6421103956  1.42D-04  1.05D-04  2.73D-03    59.3
 d= 0,ls=0.0,diis     4  -1152.6423765888 -2.66D-04  1.39D-05  7.87D-06    60.5
 d= 0,ls=0.0,diis     5  -1152.6423769601 -3.71D-07  7.80D-06  4.59D-06    61.8


         Total DFT energy =    -1152.642376960059
      One electron energy =    -2461.078023368487
           Coulomb energy =      977.589347874966
    Exchange-Corr. energy =      -83.863388062962
 Nuclear repulsion energy =      414.709686596424

 Numeric. integr. density =       71.999989091918

     Total iterative time =     10.8s



                  Occupations of the irreducible representations
                  ----------------------------------------------

                     irrep           alpha         beta
                     --------     --------     --------
                     a1               15.0         15.0
                     a2                4.0          4.0
                     b1               12.0         12.0
                     b2                5.0          5.0


 center of mass
 --------------
 x =   0.00000000 y =   0.00000000 z =  -0.01087057

 moments of inertia (a.u.)
 ------------------
         816.514812863374           0.000000000000           0.000000000000
           0.000000000000        1814.069821101944           0.000000000000
           0.000000000000           0.000000000000        1017.639409401364

     Multipole analysis of the density
     ---------------------------------

     L   x y z        total         alpha         beta         nuclear
     -   - - -        -----         -----         ----         -------
     0   0 0 0      0.000000    -36.000000    -36.000000     72.000000

     1   1 0 0     -0.000000     -0.000000     -0.000000     -0.000000
     1   0 1 0      0.000000      0.000000      0.000000      0.000000
     1   0 0 1     -4.374307    -10.512646    -10.512646     16.650985

     2   2 0 0    -43.945837   -287.353291   -287.353291    530.760746
     2   1 1 0      0.000000      0.000000      0.000000      0.000000
     2   1 0 1      0.000000      0.000000      0.000000      0.000000
     2   0 2 0    -46.542878    -28.253554    -28.253554      9.964230
     2   0 1 1      0.000000      0.000000      0.000000      0.000000
     2   0 0 2    -39.937214   -231.359005   -231.359005    422.780796


 Parallel integral file used     581 records with      24 large values


            General Information
            -------------------
          SCF calculation type: DFT
          Wavefunction type:  closed shell.
          No. of atoms     :    11
          No. of electrons :    72
           Alpha electrons :    36
            Beta electrons :    36
          Charge           :     0
          Spin multiplicity:     1
          Use of symmetry is: on ; symmetry adaption is: on 
          Maximum number of iterations: 100
          AO basis - number of functions:   212
                     number of shells:    86
          Convergence on energy requested:  1.00D-06
          Convergence on density requested:  1.00D-05
          Convergence on gradient requested:  5.00D-04

              XC Information
              --------------
                         PBE0 Method XC Functional
                     Hartree-Fock (Exact) Exchange  0.250          
          PerdewBurkeErnzerhof Exchange Functional  0.750          
            Perdew 1991 LDA Correlation Functional  1.000 local    
           PerdewBurkeErnz. Correlation Functional  1.000 non-local

             Grid Information
             ----------------
          Grid used for XC integration:  medium    
          Radial quadrature: Mura-Knowles        
          Angular quadrature: Lebedev. 
          Tag              B.-S. Rad. Rad. Pts. Rad. Cut. Ang. Pts.
          ---              ---------- --------- --------- ---------
          Pt                  1.35      123           9.0       590
          Cl                  1.00       88          12.0       590
          N                   0.65       49          11.0       434
          H                   0.35       45          12.0       434
          Grid pruning is: on 
          Number of quadrature shells:   350
          Spatial weights used:  Erf1

          Convergence Information
          -----------------------
          Convergence aids based upon iterative change in 
          total energy or number of iterations. 
          Levelshifting, if invoked, occurs when the 
          HOMO/LUMO gap drops below (HL_TOL):  1.00D-02
          DIIS, if invoked, will attempt to extrapolate 
          using up to (NFOCK): 10 stored Fock matrices.

                    Damping( 0%)  Levelshifting(0.5)       DIIS
                  --------------- ------------------- ---------------
          dE  on:    start            ASAP                start   
          dE off:    2 iters        100 iters           100 iters 


      Screening Tolerance Information
      -------------------------------
          Density screening/tol_rho:  1.00D-10
          AO Gaussian exp screening on grid/accAOfunc:  14
          CD Gaussian exp screening on grid/accCDfunc:  20
          XC Gaussian exp screening on grid/accXCfunc:  20
          Schwarz screening/accCoul:  1.00D-08



                            NWChem DFT Gradient Module
                            --------------------------


                                     Cisplatin



  charge          =   0.00
  wavefunction    = closed shell

  Using symmetry


                         DFT ENERGY GRADIENTS

    atom               coordinates                        gradient
                 x          y          z           x          y          z
   1 Pt      0.000000   0.000000  -0.388725    0.000000   0.000000  -0.011431
   2 Cl     -3.168213   0.000000   2.532967    0.000453   0.000000   0.002168
   3 Cl      3.168213   0.000000   2.532967   -0.000453   0.000000   0.002168
   4 N      -2.872026   0.000000  -2.997164    0.011366   0.000000   0.011143
   5 H      -2.849776   1.578308  -4.127634    0.001841   0.008667  -0.004900
   6 H      -2.849776  -1.578308  -4.127634    0.001841  -0.008667  -0.004900
   7 N       2.872026   0.000000  -2.997164   -0.011366   0.000000   0.011143
   8 H       2.849776  -1.578308  -4.127634   -0.001841  -0.008667  -0.004900
   9 H       2.849776   1.578308  -4.127634   -0.001841   0.008667  -0.004900
  10 H      -4.556255   0.000000  -2.001014   -0.010854   0.000000   0.002205
  11 H       4.556255   0.000000  -2.001014    0.010854   0.000000   0.002205

                 ----------------------------------------
                 |  Time  |  1-e(secs)   |  2-e(secs)   |
                 ----------------------------------------
                 |  CPU   |       0.15   |      19.61   |
                 ----------------------------------------
                 |  WALL  |       0.15   |      19.62   |
                 ----------------------------------------
  no constraints, skipping    0.0000000000000000     

  Step       Energy      Delta E   Gmax     Grms     Xrms     Xmax   Walltime
  ---- ---------------- -------- -------- -------- -------- -------- --------
@    1   -1152.64237696 -1.1D-02  0.01046  0.00411  0.16549  0.37748     82.6
                                                                    



                                Z-matrix (autoz)
                                -------- 

 Units are Angstrom for bonds and degrees for angles

      Type          Name      I     J     K     L     M      Value     Gradient
      ----------- --------  ----- ----- ----- ----- ----- ---------- ----------
    1 Stretch                  1     2                       2.28062    0.00114
    2 Stretch                  1     3                       2.28062    0.00114
    3 Stretch                  1     4                       2.05308   -0.00549
    4 Stretch                  1     7                       2.05308   -0.00549
    5 Stretch                  4     5                       1.02741    0.00992
    6 Stretch                  4     6                       1.02741    0.00992
    7 Stretch                  4    10                       1.03548    0.01046
    8 Stretch                  7     8                       1.02741    0.00992
    9 Stretch                  7     9                       1.02741    0.00992
   10 Stretch                  7    11                       1.03548    0.01046
   11 Bend                     1     4     5               112.51849   -0.00169
   12 Bend                     1     4     6               112.51849   -0.00169
   13 Bend                     1     4    10               107.15105    0.00332
   14 Bend                     1     7     8               112.51849   -0.00169
   15 Bend                     1     7     9               112.51849   -0.00169
   16 Bend                     1     7    11               107.15105    0.00332
   17 Bend                     2     1     3                94.63616   -0.00265
   18 Bend                     2     1     4                84.92836    0.00264
   19 Bend                     3     1     7                84.92836    0.00264
   20 Bend                     4     1     7                95.50712   -0.00264
   21 Bend                     5     4     6               108.76490    0.00101
   22 Bend                     5     4    10               107.83519   -0.00042
   23 Bend                     6     4    10               107.83519   -0.00042
   24 Bend                     8     7     9               108.76490    0.00101
   25 Bend                     8     7    11               107.83519   -0.00042
   26 Bend                     9     7    11               107.83519   -0.00042
   27 Torsion                  2     1     4     5         118.35540    0.00063
   28 Torsion                  2     1     4     6        -118.35540   -0.00063
   29 Torsion                  2     1     4    10           0.00000    0.00000
   30 Torsion                  3     1     7     8         118.35540    0.00063
   31 Torsion                  3     1     7     9        -118.35540   -0.00063
   32 Torsion                  3     1     7    11          -0.00000    0.00000
   33 Torsion                  4     1     7     8         -61.64460    0.00063
   34 Torsion                  4     1     7     9          61.64460   -0.00063
   35 Torsion                  4     1     7    11         180.00000   -0.00000
   36 Torsion                  3     1     5     4        -178.93051   -0.00019
   37 Torsion                  5     4     1     7         -61.64460    0.00063
   38 Torsion                  3     1     6     4         178.93051    0.00019
   39 Torsion                  6     4     1     7          61.64460   -0.00063
   40 Torsion                  7     1     4    10         180.00000   -0.00000
   41 Torsion                  2     1     8     7        -178.93051   -0.00019
   42 Torsion                  2     1     9     7         178.93051    0.00019
   43 Torsion                  3     1    10     4         180.00000    0.00000
   44 Torsion                  2     1    11     7         180.00000   -0.00000

  no constraints, skipping    0.0000000000000000     
  no constraints, skipping    0.0000000000000000     
  no constraints, skipping    0.0000000000000000     
  no constraints, skipping    0.0000000000000000     
  no constraints, skipping    0.0000000000000000     
  no constraints, skipping    0.0000000000000000     
  no constraints, skipping    0.0000000000000000     
  no constraints, skipping    0.0000000000000000     

                                 NWChem DFT Module
                                 -----------------


                                     Cisplatin




 Summary of "ao basis" -> "ao basis" (spherical)
 ------------------------------------------------------------------------------
       Tag                 Description            Shells   Functions and Types
 ---------------- ------------------------------  ------  ---------------------
 Pt                        def2-tzvp                14       40   6s4p3d1f
 Cl                        def2-tzvp                13       37   5s5p2d1f
 N                         def2-tzvp                11       31   5s3p2d1f
 H                         def2-tzvp                 4        6   3s1p


      Symmetry analysis of basis
      --------------------------

        a1         75
        a2         33
        b1         66
        b2         38

  Caching 1-el integrals 

            General Information
            -------------------
          SCF calculation type: DFT
          Wavefunction type:  closed shell.
          No. of atoms     :    11
          No. of electrons :    72
           Alpha electrons :    36
            Beta electrons :    36
          Charge           :     0
          Spin multiplicity:     1
          Use of symmetry is: on ; symmetry adaption is: on 
          Maximum number of iterations: 100
          AO basis - number of functions:   212
                     number of shells:    86
          Convergence on energy requested:  1.00D-06
          Convergence on density requested:  1.00D-05
          Convergence on gradient requested:  5.00D-04

              XC Information
              --------------
                         PBE0 Method XC Functional
                     Hartree-Fock (Exact) Exchange  0.250          
          PerdewBurkeErnzerhof Exchange Functional  0.750          
            Perdew 1991 LDA Correlation Functional  1.000 local    
           PerdewBurkeErnz. Correlation Functional  1.000 non-local

             Grid Information
             ----------------
          Grid used for XC integration:  medium    
          Radial quadrature: Mura-Knowles        
          Angular quadrature: Lebedev. 
          Tag              B.-S. Rad. Rad. Pts. Rad. Cut. Ang. Pts.
          ---              ---------- --------- --------- ---------
          Pt                  1.35      123           9.0       590
          Cl                  1.00       88          12.0       590
          N                   0.65       49          11.0       434
          H                   0.35       45          12.0       434
          Grid pruning is: on 
          Number of quadrature shells:   350
          Spatial weights used:  Erf1

          Convergence Information
          -----------------------
          Convergence aids based upon iterative change in 
          total energy or number of iterations. 
          Levelshifting, if invoked, occurs when the 
          HOMO/LUMO gap drops below (HL_TOL):  1.00D-02
          DIIS, if invoked, will attempt to extrapolate 
          using up to (NFOCK): 10 stored Fock matrices.

                    Damping( 0%)  Levelshifting(0.5)       DIIS
                  --------------- ------------------- ---------------
          dE  on:    start            ASAP                start   
          dE off:    2 iters        100 iters           100 iters 


      Screening Tolerance Information
      -------------------------------
          Density screening/tol_rho:  1.00D-10
          AO Gaussian exp screening on grid/accAOfunc:  14
          CD Gaussian exp screening on grid/accCDfunc:  20
          XC Gaussian exp screening on grid/accXCfunc:  20
          Schwarz screening/accCoul:  1.00D-08


 Loading old vectors from job with title :

Cisplatin


      Symmetry analysis of molecular orbitals - initial
      -------------------------------------------------

  Numbering of irreducible representations: 

     1 a1          2 a2          3 b1          4 b2      

  Orbital symmetries:

     1 b1          2 a1          3 b1          4 a1          5 b1      
     6 a1          7 b1          8 a1          9 a1         10 b1      
    11 b2         12 a2         13 a1         14 b1         15 a1      
    16 b2         17 a1         18 b1         19 a1         20 b1      
    21 b2         22 a1         23 a2         24 b1         25 a1      
    26 b1         27 a1         28 b1         29 a1         30 a2      
    31 b2         32 b1         33 a1         34 a1         35 b2      
    36 a2         37 b1         38 a1         39 b1         40 b2      
    41 b2         42 a1         43 a2         44 b1         45 a1      
    46 a1      

   Time after variat. SCF:     82.8
   Time prior to 1st pass:     82.8

 Integral file          = /tmp/cisplatin.aoints.0
 Record size in doubles =  65536        No. of integs per rec  =  65534
 Max. records in memory =   1982        Max. records in file   =      0
 No. of bits per label  =      8        No. of bits per value  =     32


 #quartets = 1.768D+06 #integrals = 3.776D+07 #direct =  0.0% #cached =100.0%


 Grid_pts file          = /tmp/cisplatin.gridpts.0
 Record size in doubles =  12289        No. of grid_pts per rec  =   3070
 Max. records in memory =     75        Max. recs in file   =   2389235


           Memory utilization after 1st SCF pass: 
           Heap Space remaining (MW):        3.38             3379580
          Stack Space remaining (MW):      134.22           134216364

   convergence    iter        energy       DeltaE   RMS-Dens  Diis-err    time
 ---------------- ----- ----------------- --------- --------- ---------  ------
 d= 0,ls=0.0,diis     1  -1152.6425476219 -1.57D+03  4.49D-04  6.64D-02    88.7
 d= 0,ls=0.0,diis     2  -1152.6443021331 -1.75D-03  1.28D-04  5.71D-04    89.9
 d= 0,ls=0.0,diis     3  -1152.6442888222  1.33D-05  8.71D-05  7.99D-04    91.2
 d= 0,ls=0.0,diis     4  -1152.6443630268 -7.42D-05  2.73D-05  6.36D-05    92.4
 d= 0,ls=0.0,diis     5  -1152.6443693404 -6.31D-06  7.74D-06  6.43D-06    93.6
 d= 0,ls=0.0,diis     6  -1152.6443699360 -5.96D-07  2.26D-06  6.85D-07    94.8


         Total DFT energy =    -1152.644369935966
      One electron energy =    -2460.202685840442
           Coulomb energy =      977.142606680094
    Exchange-Corr. energy =      -83.887066692726
 Nuclear repulsion energy =      414.302775917108

 Numeric. integr. density =       72.000025781168

     Total iterative time =     12.0s



                  Occupations of the irreducible representations
                  ----------------------------------------------

                     irrep           alpha         beta
                     --------     --------     --------
                     a1               15.0         15.0
                     a2                4.0          4.0
                     b1               12.0         12.0
                     b2                5.0          5.0


 center of mass
 --------------
 x =   0.00000000 y =   0.00000000 z =  -0.05137378

 moments of inertia (a.u.)
 ------------------
         791.124107226722           0.000000000000           0.000000000000
           0.000000000000        1823.134909853023           0.000000000000
           0.000000000000           0.000000000000        1051.549500902060

     Multipole analysis of the density
     ---------------------------------

     L   x y z        total         alpha         beta         nuclear
     -   - - -        -----         -----         ----         -------
     0   0 0 0      0.000000    -36.000000    -36.000000     72.000000

     1   1 0 0      0.000000      0.000000      0.000000     -0.000000
     1   0 1 0      0.000000      0.000000      0.000000      0.000000
     1   0 0 1     -4.236583     -8.836831     -8.836831     13.437080

     2   2 0 0    -43.568777   -296.471012   -296.471012    549.373247
     2   1 1 0      0.000000      0.000000      0.000000      0.000000
     2   1 0 1     -0.000000     -0.000000     -0.000000      0.000000
     2   0 2 0    -46.539853    -28.116675    -28.116675      9.693498
     2   0 1 1      0.000000      0.000000      0.000000      0.000000
     2   0 0 2    -39.774064   -224.087058   -224.087058    408.400051


 Parallel integral file used     577 records with      24 large values

 Line search: 
     step= 1.00 grad=-3.3D-03 hess= 1.3D-03 energy=  -1152.644370 mode=downhill
 new step= 1.25                   predicted energy=  -1152.644456
  no constraints, skipping    0.0000000000000000     
[...]
   33 Torsion                  4     1     7     8         -63.47989   -0.00000
   34 Torsion                  4     1     7     9          63.47989    0.00000
   35 Torsion                  4     1     7    11         180.00000   -0.00000
   36 Torsion                  3     1     5     4        -176.00012   -0.00000
   37 Torsion                  5     4     1     7         -63.47989   -0.00000
   38 Torsion                  3     1     6     4         176.00012    0.00000
   39 Torsion                  6     4     1     7          63.47989    0.00000
   40 Torsion                  7     1     4    10         180.00000   -0.00000
   41 Torsion                  2     1     8     7        -176.00012   -0.00000
   42 Torsion                  2     1     9     7         176.00012    0.00000
   43 Torsion                  3     1    10     4         180.00000   -0.00000
   44 Torsion                  2     1    11     7         180.00000   -0.00000


      ----------------------
      Optimization converged
      ----------------------


  Step       Energy      Delta E   Gmax     Grms     Xrms     Xmax   Walltime
  ---- ---------------- -------- -------- -------- -------- -------- --------
@    7   -1152.64482781  5.3D-08  0.00001  0.00001  0.00017  0.00032    295.2
                                     ok       ok       ok       ok  



                                Z-matrix (autoz)
                                -------- 

 Units are Angstrom for bonds and degrees for angles

      Type          Name      I     J     K     L     M      Value     Gradient
      ----------- --------  ----- ----- ----- ----- ----- ---------- ----------
    1 Stretch                  1     2                       2.27771   -0.00001
    2 Stretch                  1     3                       2.27771   -0.00001
    3 Stretch                  1     4                       2.07882    0.00001
    4 Stretch                  1     7                       2.07882    0.00001
    5 Stretch                  4     5                       1.01438    0.00001
    6 Stretch                  4     6                       1.01438    0.00001
    7 Stretch                  4    10                       1.02388   -0.00001
    8 Stretch                  7     8                       1.01438    0.00001
    9 Stretch                  7     9                       1.01438    0.00001
   10 Stretch                  7    11                       1.02388   -0.00001
   11 Bend                     1     4     5               114.60158   -0.00001
   12 Bend                     1     4     6               114.60158   -0.00001
   13 Bend                     1     4    10               101.21218    0.00000
   14 Bend                     1     7     8               114.60158   -0.00001
   15 Bend                     1     7     9               114.60158   -0.00001
   16 Bend                     1     7    11               101.21218    0.00000
   17 Bend                     2     1     3                95.53825    0.00000
   18 Bend                     2     1     4                82.96207   -0.00000
   19 Bend                     3     1     7                82.96207   -0.00000
   20 Bend                     4     1     7                98.53762    0.00000
   21 Bend                     5     4     6               108.88926    0.00001
   22 Bend                     5     4    10               108.49871   -0.00000
   23 Bend                     6     4    10               108.49871   -0.00000
   24 Bend                     8     7     9               108.88926    0.00001
   25 Bend                     8     7    11               108.49871   -0.00000
   26 Bend                     9     7    11               108.49871   -0.00000
   27 Torsion                  2     1     4     5         116.52011   -0.00000
   28 Torsion                  2     1     4     6        -116.52011    0.00000
   29 Torsion                  2     1     4    10           0.00000   -0.00000
   30 Torsion                  3     1     7     8         116.52011   -0.00000
   31 Torsion                  3     1     7     9        -116.52011    0.00000
   32 Torsion                  3     1     7    11          -0.00000   -0.00000
   33 Torsion                  4     1     7     8         -63.47989   -0.00000
   34 Torsion                  4     1     7     9          63.47989    0.00000
   35 Torsion                  4     1     7    11         180.00000   -0.00000
   36 Torsion                  3     1     5     4        -176.00012   -0.00000
   37 Torsion                  5     4     1     7         -63.47989   -0.00000
   38 Torsion                  3     1     6     4         176.00012    0.00000
   39 Torsion                  6     4     1     7          63.47989    0.00000
   40 Torsion                  7     1     4    10         180.00000   -0.00000
   41 Torsion                  2     1     8     7        -176.00012   -0.00000
   42 Torsion                  2     1     9     7         176.00012    0.00000
   43 Torsion                  3     1    10     4         180.00000   -0.00000
   44 Torsion                  2     1    11     7         180.00000   -0.00000



                         Geometry "geometry" -> "geometry"
                         ---------------------------------

 Output coordinates in angstroms (scale by  1.889725989 to convert to a.u.)

  No.       Tag          Charge          X              Y              Z
 ---- ---------------- ---------- -------------- -------------- --------------
    1 Pt                  78.0000     0.00000000     0.00000000    -0.24307151
    2 Cl                  17.0000    -1.68651619     0.00000000     1.28782485
    3 Cl                  17.0000     1.68651619     0.00000000     1.28782485
    4 N                    7.0000    -1.57528925     0.00000000    -1.59952668
    5 H                    1.0000    -1.62657797     0.82525004    -2.18714190
    6 H                    1.0000    -1.62657797    -0.82525004    -2.18714190
    7 N                    7.0000     1.57528925     0.00000000    -1.59952668
    8 H                    1.0000     1.62657797    -0.82525004    -2.18714190
    9 H                    1.0000     1.62657797     0.82525004    -2.18714190
   10 H                    1.0000    -2.38149642     0.00000000    -0.96836443
   11 H                    1.0000     2.38149642     0.00000000    -0.96836443

      Atomic Mass 
      ----------- 

      Pt               194.964800
      Cl                34.968850
      N                 14.003070
      H                  1.007825


 Effective nuclear repulsion energy (a.u.)    1175.4690858292

            Nuclear Dipole moment (a.u.) 
            ----------------------------
        X                 Y               Z
 ---------------- ---------------- ----------------
     0.0000000000     0.0000000000   -15.5944025276

      Symmetry information
      --------------------

 Group name             C2v       
 Group number             16
 Group order               4
 No. of unique centers     5

      Symmetry unique atoms

     1    2    4    5   10


                Final and change from initial internal coordinates
                --------------------------------------------------



                                Z-matrix (autoz)
                                -------- 

 Units are Angstrom for bonds and degrees for angles

      Type          Name      I     J     K     L     M      Value       Change
      ----------- --------  ----- ----- ----- ----- ----- ---------- ----------
    1 Stretch                  1     2                       2.27771   -0.00229
    2 Stretch                  1     3                       2.27771   -0.00229
    3 Stretch                  1     4                       2.07882    0.08882
    4 Stretch                  1     7                       2.07882    0.08882
    5 Stretch                  4     5                       1.01438    0.01438
    6 Stretch                  4     6                       1.01438    0.01438
    7 Stretch                  4    10                       1.02388    0.02388
    8 Stretch                  7     8                       1.01438    0.01438
    9 Stretch                  7     9                       1.01438    0.01438
   10 Stretch                  7    11                       1.02388    0.02388
   11 Bend                     1     4     5               114.60158    5.13036
   12 Bend                     1     4     6               114.60158    5.13036
   13 Bend                     1     4    10               101.21218   -8.25904
   14 Bend                     1     7     8               114.60158    5.13036
   15 Bend                     1     7     9               114.60158    5.13036
   16 Bend                     1     7    11               101.21218   -8.25904
   17 Bend                     2     1     3                95.53825    5.53820
   18 Bend                     2     1     4                82.96207   -7.03794
   19 Bend                     3     1     7                82.96207   -7.03794
   20 Bend                     4     1     7                98.53762    8.53767
   21 Bend                     5     4     6               108.88926   -0.58197
   22 Bend                     5     4    10               108.49871   -0.97251
   23 Bend                     6     4    10               108.49871   -0.97251
   24 Bend                     8     7     9               108.88926   -0.58197
   25 Bend                     8     7    11               108.49871   -0.97251
   26 Bend                     9     7    11               108.49871   -0.97251
   27 Torsion                  2     1     4     5         116.52011   -3.47989
   28 Torsion                  2     1     4     6        -116.52011    3.47989
   29 Torsion                  2     1     4    10           0.00000    0.00000
   30 Torsion                  3     1     7     8         116.52011   -3.47989
   31 Torsion                  3     1     7     9        -116.52011    3.47989
   32 Torsion                  3     1     7    11          -0.00000    0.00000
   33 Torsion                  4     1     7     8         -63.47989   -3.47989
   34 Torsion                  4     1     7     9          63.47989    3.47989
   35 Torsion                  4     1     7    11         180.00000    0.00000
   36 Torsion                  3     1     5     4        -176.00012    4.00000
   37 Torsion                  5     4     1     7         -63.47989   -3.47989
   38 Torsion                  3     1     6     4         176.00012   -4.00000
   39 Torsion                  6     4     1     7          63.47989    3.47989
   40 Torsion                  7     1     4    10         180.00000    0.00000
   41 Torsion                  2     1     8     7        -176.00012    4.00000
   42 Torsion                  2     1     9     7         176.00012   -4.00000
   43 Torsion                  3     1    10     4         180.00000    0.00000
   44 Torsion                  2     1    11     7         180.00000    0.00000

 ==============================================================================
                                internuclear distances
 ------------------------------------------------------------------------------
       center one      |      center two      | atomic units |  angstroms
 ------------------------------------------------------------------------------
    2 Cl               |   1 Pt               |     4.30426  |     2.27771
    3 Cl               |   1 Pt               |     4.30426  |     2.27771
    4 N                |   1 Pt               |     3.92841  |     2.07882
    5 H                |   4 N                |     1.91689  |     1.01438
    6 H                |   4 N                |     1.91689  |     1.01438
    7 N                |   1 Pt               |     3.92841  |     2.07882
    8 H                |   7 N                |     1.91689  |     1.01438
    9 H                |   7 N                |     1.91689  |     1.01438
   10 H                |   4 N                |     1.93486  |     1.02388
   11 H                |   7 N                |     1.93486  |     1.02388
 ------------------------------------------------------------------------------
                         number of included internuclear distances:         10
 ==============================================================================



 ==============================================================================
                                 internuclear angles
 ------------------------------------------------------------------------------
        center 1       |       center 2       |       center 3       |  degrees
 ------------------------------------------------------------------------------
    2 Cl               |   1 Pt               |   3 Cl               |    95.54
    2 Cl               |   1 Pt               |   4 N                |    82.96
    2 Cl               |   1 Pt               |   7 N                |   178.50
    3 Cl               |   1 Pt               |   4 N                |   178.50
    3 Cl               |   1 Pt               |   7 N                |    82.96
    4 N                |   1 Pt               |   7 N                |    98.54
    1 Pt               |   4 N                |   5 H                |   114.60
    1 Pt               |   4 N                |   6 H                |   114.60
    1 Pt               |   4 N                |  10 H                |   101.21
    5 H                |   4 N                |   6 H                |   108.89
    5 H                |   4 N                |  10 H                |   108.50
    6 H                |   4 N                |  10 H                |   108.50
    1 Pt               |   7 N                |   8 H                |   114.60
    1 Pt               |   7 N                |   9 H                |   114.60
    1 Pt               |   7 N                |  11 H                |   101.21
    8 H                |   7 N                |   9 H                |   108.89
    8 H                |   7 N                |  11 H                |   108.50
    9 H                |   7 N                |  11 H                |   108.50
 ------------------------------------------------------------------------------
                            number of included internuclear angles:         18
 ==============================================================================




 Task  times  cpu:      294.7s     wall:      295.2s


                                NWChem Input Module
                                -------------------


 MOLDEN output will be written to the file ./cisplatin.molden
  do_norm_janpa  F
  do_norm_nwchem  F
  molden scftype: RHF                  spinref:                     1
  
  Molden file created 
  If you plan to use JANPA 
    run the .molden file through 
    molden2molden.jar -NormalizeBF to get the
    correct Molden normalization 
   

 Task  times  cpu:        0.1s     wall:        0.1s


                                NWChem Input Module
                                -------------------


 Summary of allocated global arrays
-----------------------------------
  No active global arrays



                         GA Statistics for process    0
                         ------------------------------

       create   destroy   get      put      acc     scatter   gather  read&inc
calls: 1971     1971     1.02e+07 7.33e+04 3.21e+05    0        0     3.52e+04 
number of processes/call -2.44e+11 9.55e+13 -9.11e+12 0.00e+00 0.00e+00
bytes total:             4.11e+09 5.88e+08 1.32e+09 0.00e+00 0.00e+00 2.82e+05
bytes remote:            0.00e+00 0.00e+00 0.00e+00 0.00e+00 0.00e+00 0.00e+00
Max memory consumed for GA by this process: 13303424 bytes

MA_summarize_allocated_blocks: starting scan ...
MA_summarize_allocated_blocks: scan completed: 0 heap blocks, 0 stack blocks
MA usage statistics:

	allocation statistics:
					      heap	     stack
					      ----	     -----
	current number of blocks	         0	         0
	maximum number of blocks	        43	        58
	current total bytes		         0	         0
	maximum total bytes		1046705088	  52403048
	maximum total K-bytes		   1046706	     52404
	maximum total M-bytes		      1047	        53


                                     CITATION
                                     --------
                Please cite the following reference when publishing
                           results obtained with NWChem:

          E. Apr, E. J. Bylaska, W. A. de Jong, N. Govind, K. Kowalski,
       T. P. Straatsma, M. Valiev, H. J. J. van Dam, Y. Alexeev, J. Anchell,
       V. Anisimov, F. W. Aquino, R. Atta-Fynn, J. Autschbach, N. P. Bauman,
     J. C. Becca, D. E. Bernholdt, K. Bhaskaran-Nair, S. Bogatko, P. Borowski,
        J. Boschen, J. Brabec, A. Bruner, E. Caut, Y. Chen, G. N. Chuev,
      C. J. Cramer, J. Daily, M. J. O. Deegan, T. H. Dunning Jr., M. Dupuis,
   K. G. Dyall, G. I. Fann, S. A. Fischer, A. Fonari, H. Frchtl, L. Gagliardi,
      J. Garza, N. Gawande, S. Ghosh, K. Glaesemann, A. W. Gtz, J. Hammond,
       V. Helms, E. D. Hermes, K. Hirao, S. Hirata, M. Jacquelin, L. Jensen,
   B. G. Johnson, H. Jnsson, R. A. Kendall, M. Klemm, R. Kobayashi, V. Konkov,
      S. Krishnamoorthy, M. Krishnan, Z. Lin, R. D. Lins, R. J. Littlefield,
      A. J. Logsdail, K. Lopata, W. Ma, A. V. Marenich, J. Martin del Campo,
   D. Mejia-Rodriguez, J. E. Moore, J. M. Mullin, T. Nakajima, D. R. Nascimento,
    J. A. Nichols, P. J. Nichols, J. Nieplocha, A. Otero-de-la-Roza, B. Palmer,
    A. Panyala, T. Pirojsirikul, B. Peng, R. Peverati, J. Pittner, L. Pollack,
   R. M. Richard, P. Sadayappan, G. C. Schatz, W. A. Shelton, D. W. Silverstein,
   D. M. A. Smith, T. A. Soares, D. Song, M. Swart, H. L. Taylor, G. S. Thomas,
            V. Tipparaju, D. G. Truhlar, K. Tsemekhman, T. Van Voorhis,
     . Vzquez-Mayagoitia, P. Verma, O. Villa, A. Vishnu, K. D. Vogiatzis,
        D. Wang, J. H. Weare, M. J. Williamson, T. L. Windus, K. Woliski,
        A. T. Wong, Q. Wu, C. Yang, Q. Yu, M. Zacharias, Z. Zhang, Y. Zhao,
                                and R. J. Harrison
                        "NWChem: Past, present, and future
                         J. Chem. Phys. 152, 184102 (2020)
                               doi:10.1063/5.0004997

                                      AUTHORS
                                      -------
     E. Apra, E. J. Bylaska, N. Govind, K. Kowalski, M. Valiev, W. A. de Jong,
      T. P. Straatsma, H. J. J. van Dam, D. Wang, T. L. Windus, N. P. Bauman,
       A. Panyala, J. Hammond, J. Autschbach, K. Bhaskaran-Nair, J. Brabec,
    K. Lopata, S. A. Fischer, S. Krishnamoorthy, M. Jacquelin, W. Ma, M. Klemm,
       O. Villa, Y. Chen, V. Anisimov, F. Aquino, S. Hirata, M. T. Hackler,
           Eric Hermes, L. Jensen, J. E. Moore, J. C. Becca, V. Konjkov,
            D. Mejia-Rodriguez, T. Risthaus, M. Malagoli, A. Marenich,
   A. Otero-de-la-Roza, J. Mullin, P. Nichols, R. Peverati, J. Pittner, Y. Zhao,
        P.-D. Fan, A. Fonari, M. J. Williamson, R. J. Harrison, J. R. Rehr,
      M. Dupuis, D. Silverstein, D. M. A. Smith, J. Nieplocha, V. Tipparaju,
      M. Krishnan, B. E. Van Kuiken, A. Vazquez-Mayagoitia, M. Swart, Q. Wu,
   T. Van Voorhis, A. A. Auer, M. Nooijen, L. D. Crosby, E. Brown, G. Cisneros,
     G. I. Fann, H. Fruchtl, J. Garza, K. Hirao, R. A. Kendall, J. A. Nichols,
       K. Tsemekhman, K. Wolinski, J. Anchell, D. E. Bernholdt, P. Borowski,
       T. Clark, D. Clerc, H. Dachsel, M. J. O. Deegan, K. Dyall, D. Elwood,
      E. Glendening, M. Gutowski, A. C. Hess, J. Jaffe, B. G. Johnson, J. Ju,
        R. Kobayashi, R. Kutteh, Z. Lin, R. Littlefield, X. Long, B. Meng,
      T. Nakajima, S. Niu, L. Pollack, M. Rosing, K. Glaesemann, G. Sandrone,
      M. Stave, H. Taylor, G. Thomas, J. H. van Lenthe, A. T. Wong, Z. Zhang.

 Total times  cpu:      294.8s     wall:      295.3s
