
    -----------------------------------------------------------------------
          Psi4: An Open-Source Ab Initio Electronic Structure Package
                               Psi4 1.3.2 release

                         Git: Rev {} zzzzzzz 


    R. M. Parrish, L. A. Burns, D. G. A. Smith, A. C. Simmonett,
    A. E. DePrince III, E. G. Hohenstein, U. Bozkaya, A. Yu. Sokolov,
    R. Di Remigio, R. M. Richard, J. F. Gonthier, A. M. James,
    H. R. McAlexander, A. Kumar, M. Saitow, X. Wang, B. P. Pritchard,
    P. Verma, H. F. Schaefer III, K. Patkowski, R. A. King, E. F. Valeev,
    F. A. Evangelista, J. M. Turney, T. D. Crawford, and C. D. Sherrill,
    J. Chem. Theory Comput. 13(7) pp 3185--3197 (2017).
    (doi: 10.1021/acs.jctc.7b00174)


                         Additional Contributions by
    P. Kraus, H. Kruse, M. H. Lechner, M. C. Schieber, R. A. Shaw,
    A. Alenaizan, R. Galvelis, Z. L. Glick, S. Lehtola, and J. P. Misiewicz

    -----------------------------------------------------------------------


    Psi4 started on: Saturday, 10 July 2021 02:02PM

    Process ID: 1410410
    Host:       thinkpad
    PSIDATADIR: /usr/share/psi4
    Memory:     500.0 MiB
    Threads:    4
    
  ==> Input File <==

--------------------------------------------------------------------------
# PBE0/def2-SV(P) calculation on methylcyclohexane conformer #3 

memory 4 gb

molecule {
	    C     1.0216419245  -0.0001893047  -0.3161487792
	    C     0.2973378810  -1.2506189086   0.1775810939
	    C     0.2974575475   1.2506064200   0.1768888542
	    C    -1.1744365717  -1.2562548858  -0.2114123160
	    C    -1.1744003045   1.2563138446  -0.2118044939
	    C    -1.8832979544   0.0001086433   0.2763796821
	    C     2.5044935295   0.0000211444   0.0793266134
	    H     0.9512211911  -0.0006346245  -1.4122949918
	    H     0.3862894619  -1.2982365713   1.2715459249
	    H     0.7972905901  -2.1442785585  -0.2110917697
	    H     0.7974907920   2.1441281708  -0.2119996269
	    H     0.3864916794   1.2984938158   1.2708408296
	    H    -1.6669778433  -2.1498908639   0.1839200828
	    H    -1.2570179075  -1.3143309934  -1.3042533603
	    H    -1.2572891892   1.3142828167  -1.3046177348
	    H    -1.6667382460   2.1500405286   0.1835849215
	    H    -2.9272715623   0.0000773207  -0.0514713459
	    H    -1.9011221133   0.0002497318   1.3736480570
	    H     2.7616318183  -0.8827199494   0.6705925314
	    H     3.1617458457   0.0067799630  -0.7925468044
	    H     2.7583418418   0.8761945606   0.6816958235
}

set basis def2-SV(P)
energy('pbe0')
--------------------------------------------------------------------------

  Memory set to   3.725 GiB by Python driver.

*** tstart() called on thinkpad
*** at Sat Jul 10 14:02:57 2021

   => Loading Basis Set <=

    Name: DEF2-SV(P)
    Role: ORBITAL
    Keyword: BASIS
    atoms 1-7  entry C          line    88 file /usr/share/psi4/basis/def2-sv_p_.gbs 
    atoms 8-21 entry H          line    15 file /usr/share/psi4/basis/def2-sv_p_.gbs 


         ---------------------------------------------------------
                                   SCF
               by Justin Turney, Rob Parrish, Andy Simmonett
                          and Daniel G. A. Smith
                              RKS Reference
                        4 Threads,   3814 MiB Core
         ---------------------------------------------------------

  ==> Geometry <==

    Molecular point group: c1
    Full point group: C1

    Geometry (in Angstrom), charge = 0, multiplicity = 1:

       Center              X                  Y                   Z               Mass       
    ------------   -----------------  -----------------  -----------------  -----------------
         C            1.021641924501    -0.000189304710    -0.316148779207    12.000000000000
         C            0.297337881001    -1.250618908610     0.177581093893    12.000000000000
         C            0.297457547501     1.250606419990     0.176888854193    12.000000000000
         C           -1.174436571699    -1.256254885810    -0.211412316007    12.000000000000
         C           -1.174400304499     1.256313844590    -0.211804493907    12.000000000000
         C           -1.883297954399     0.000108643290     0.276379682093    12.000000000000
         C            2.504493529501     0.000021144390     0.079326613393    12.000000000000
         H            0.951221191101    -0.000634624510    -1.412294991807     1.007825032230
         H            0.386289461901    -1.298236571310     1.271545924893     1.007825032230
         H            0.797290590101    -2.144278558510    -0.211091769707     1.007825032230
         H            0.797490792001     2.144128170790    -0.211999626907     1.007825032230
         H            0.386491679401     1.298493815790     1.270840829593     1.007825032230
         H           -1.666977843299    -2.149890863910     0.183920082793     1.007825032230
         H           -1.257017907499    -1.314330993410    -1.304253360307     1.007825032230
         H           -1.257289189199     1.314282816690    -1.304617734807     1.007825032230
         H           -1.666738245999     2.150040528590     0.183584921493     1.007825032230
         H           -2.927271562299     0.000077320690    -0.051471345907     1.007825032230
         H           -1.901122113299     0.000249731790     1.373648056993     1.007825032230
         H            2.761631818301    -0.882719949410     0.670592531393     1.007825032230
         H            3.161745845701     0.006779962990    -0.792546804407     1.007825032230
         H            2.758341841801     0.876194560590     0.681695823493     1.007825032230

  Running in c1 symmetry.

  Rotational constants: A =      0.14193  B =      0.07301  C =      0.05318 [cm^-1]
  Rotational constants: A =   4255.03817  B =   2188.69819  C =   1594.21738 [MHz]
  Nuclear repulsion =  329.521155999122357

  Charge       = 0
  Multiplicity = 1
  Electrons    = 56
  Nalpha       = 28
  Nbeta        = 28

  ==> Algorithm <==

  SCF Algorithm Type is DF.
  DIIS enabled.
  MOM disabled.
  Fractional occupation disabled.
  Guess Type is SAD.
  Energy threshold   = 1.00e-06
  Density threshold  = 1.00e-06
  Integral threshold = 0.00e+00

  ==> Primary Basis <==

  Basis Set: DEF2-SV(P)
    Blend: DEF2-SV(P)
    Number of shells: 70
    Number of basis function: 126
    Number of Cartesian functions: 133
    Spherical Harmonics?: true
    Max angular momentum: 2

  ==> DFT Potential <==

   => Composite Functional: PBE0 <= 

    PBE0 Hyb-GGA Exchange-Correlation Functional

    C. Adamo and V. Barone, J. Chem. Phys. 110, 6158 (1999)
    M. Ernzerhof and G. E. Scuseria, J. Chem. Phys. 110, 5029 (1999)

    Deriv               =              1
    GGA                 =           TRUE
    Meta                =          FALSE

    Exchange Hybrid     =           TRUE
    MP2 Hybrid          =          FALSE

   => Exchange Functionals <=

    0.7500   Perdew, Burke & Ernzerhof

   => Exact (HF) Exchange <=

    0.2500               HF 

   => Correlation Functionals <=

    1.0000   Perdew, Burke & Ernzerhof

   => Molecular Quadrature <=

    Radial Scheme          =       TREUTLER
    Pruning Scheme         =           FLAT
    Nuclear Scheme         =       TREUTLER

    BS radius alpha        =              1
    Pruning alpha          =              1
    Radial Points          =             75
    Spherical Points       =            302
    Total Points           =         469450
    Total Blocks           =           3444
    Max Points             =            256
    Max Functions          =            125

   => Loading Basis Set <=

    Name: (DEF2-SV(P) AUX)
    Role: JKFIT
    Keyword: DF_BASIS_SCF
    atoms 1-7  entry C          line   203 file /usr/share/psi4/basis/def2-sv_p_-jkfit.gbs 
    atoms 8-21 entry H          line    23 file /usr/share/psi4/basis/def2-sv_p_-jkfit.gbs 

  ==> Pre-Iterations <==

   -------------------------------------------------------
    Irrep   Nso     Nmo     Nalpha   Nbeta   Ndocc  Nsocc
   -------------------------------------------------------
     A        126     126       0       0       0       0
   -------------------------------------------------------
    Total     126     126      28      28      28       0
   -------------------------------------------------------

  ==> Integral Setup <==

  DFHelper Memory: AOs need 0.099 GiB; user supplied 1.436 GiB. Using in-core AOs.

  ==> MemDFJK: Density-Fitted J/K Matrices <==

    J tasked:                   Yes
    K tasked:                   Yes
    wK tasked:                   No
    OpenMP threads:               4
    Memory [MiB]:              1470
    Algorithm:                 Core
    Schwarz Cutoff:           1E-12
    Mask sparsity (%):       0.8188
    Fitting Condition:        1E-10

   => Auxiliary Basis Set <=

  Basis Set: (DEF2-SV(P) AUX)
    Blend: DEF2-SV_P_-JKFIT
    Number of shells: 259
    Number of basis function: 777
    Number of Cartesian functions: 903
    Spherical Harmonics?: true
    Max angular momentum: 4

  Cached 100.0% of DFT collocation blocks in 1.358 [GiB].

  Minimum eigenvalue in the overlap matrix is 1.3825007297E-03.
  Using Symmetric Orthogonalization.

  SCF Guess: Superposition of Atomic Densities via on-the-fly atomic UHF.

  ==> Iterations <==

                           Total Energy        Delta E     RMS |[F,P]|

   @DF-RKS iter SAD:  -274.33396351159848   -2.74334e+02   0.00000e+00 
   @DF-RKS iter   1:  -274.03738206128759    2.96581e-01   8.12542e-03 DIIS
   @DF-RKS iter   2:  -273.74042837929164    2.96954e-01   1.00758e-02 DIIS
   @DF-RKS iter   3:  -274.61980322196217   -8.79375e-01   8.09102e-04 DIIS
   @DF-RKS iter   4:  -274.62396540899721   -4.16219e-03   3.30846e-04 DIIS
   @DF-RKS iter   5:  -274.62477963611923   -8.14227e-04   7.34133e-05 DIIS
   @DF-RKS iter   6:  -274.62482220404706   -4.25679e-05   7.48609e-06 DIIS
   @DF-RKS iter   7:  -274.62482258427775   -3.80231e-07   3.61731e-06 DIIS
   @DF-RKS iter   8:  -274.62482268456802   -1.00290e-07   5.94292e-07 DIIS
  Energy and wave function converged.


  ==> Post-Iterations <==

    Orbital Energies [Eh]
    ---------------------

    Doubly Occupied:                                                      

       1A    -10.225215     2A    -10.216069     3A    -10.215942  
       4A    -10.215878     5A    -10.215149     6A    -10.215131  
       7A    -10.208141     8A     -0.854340     9A     -0.778069  
      10A     -0.754598    11A     -0.686205    12A     -0.619616  
      13A     -0.595128    14A     -0.562687    15A     -0.488110  
      16A     -0.460900    17A     -0.450720    18A     -0.444973  
      19A     -0.425841    20A     -0.396402    21A     -0.387811  
      22A     -0.379689    23A     -0.358968    24A     -0.349670  
      25A     -0.338167    26A     -0.320233    27A     -0.306734  
      28A     -0.302783  

    Virtual:                                                              

      29A      0.067856    30A      0.083411    31A      0.090266  
      32A      0.104915    33A      0.125001    34A      0.137343  
      35A      0.138834    36A      0.150019    37A      0.153881  
      38A      0.163168    39A      0.170679    40A      0.170998  
      41A      0.181146    42A      0.182638    43A      0.221275  
      44A      0.246042    45A      0.247631    46A      0.274338  
      47A      0.282262    48A      0.285608    49A      0.303067  
      50A      0.435719    51A      0.445266    52A      0.461070  
      53A      0.461795    54A      0.465753    55A      0.487106  
      56A      0.506873    57A      0.595183    58A      0.609906  
      59A      0.644766    60A      0.654530    61A      0.669250  
      62A      0.676726    63A      0.691405    64A      0.700168  
      65A      0.702281    66A      0.710268    67A      0.720032  
      68A      0.723231    69A      0.728443    70A      0.728962  
      71A      0.735011    72A      0.740802    73A      0.743866  
      74A      0.744867    75A      0.745471    76A      0.761776  
      77A      0.761945    78A      0.773679    79A      0.779376  
      80A      0.783280    81A      0.800062    82A      0.821769  
      83A      0.865608    84A      0.947912    85A      0.960393  
      86A      1.012598    87A      1.139600    88A      1.200708  
      89A      1.214420    90A      1.320418    91A      1.335155  
      92A      1.375328    93A      1.376506    94A      1.550716  
      95A      1.690950    96A      1.727063    97A      1.740502  
      98A      1.765481    99A      1.850584   100A      1.861911  
     101A      1.889107   102A      1.898124   103A      1.946449  
     104A      1.955636   105A      1.980688   106A      2.027644  
     107A      2.031930   108A      2.095546   109A      2.128249  
     110A      2.154649   111A      2.198248   112A      2.217399  
     113A      2.222354   114A      2.300028   115A      2.338780  
     116A      2.344723   117A      2.366128   118A      2.407513  
     119A      2.419571   120A      2.506250   121A      2.635346  
     122A      2.653803   123A      2.711755   124A      2.716715  
     125A      2.791852   126A      2.799265  

    Final Occupation by Irrep:
              A 
    DOCC [    28 ]

  @DF-RKS Final Energy:  -274.62482268456802

   => Energetics <=

    Nuclear Repulsion Energy =            329.5211559991223567
    One-Electron Energy =               -1021.4662335167251968
    Two-Electron Energy =                 449.9185063925069699
    DFT Exchange-Correlation Energy =     -32.5982515594721320
    Empirical Dispersion Energy =           0.0000000000000000
    VV10 Nonlocal Energy =                  0.0000000000000000
    Total Energy =                       -274.6248226845680165

Computation Completed


Properties will be evaluated at   0.000000,   0.000000,   0.000000 [a0]

Properties computed using the SCF density matrix

  Nuclear Dipole Moment: [e a0]
     X:     1.2413      Y:     0.0001      Z:     0.3258

  Electronic Dipole Moment: [e a0]
     X:    -1.2446      Y:    -0.0001      Z:    -0.3528

  Dipole Moment: [e a0]
     X:    -0.0033      Y:     0.0000      Z:    -0.0270     Total:     0.0272

  Dipole Moment: [D]
     X:    -0.0084      Y:     0.0000      Z:    -0.0685     Total:     0.0691


*** tstop() called on thinkpad at Sat Jul 10 14:03:09 2021
Module time:
	user time   =      32.86 seconds =       0.55 minutes
	system time =       0.80 seconds =       0.01 minutes
	total time  =         12 seconds =       0.20 minutes
Total time:
	user time   =      32.86 seconds =       0.55 minutes
	system time =       0.80 seconds =       0.01 minutes
	total time  =         12 seconds =       0.20 minutes

    Psi4 stopped on: Saturday, 10 July 2021 02:03PM
    Psi4 wall time for execution: 0:00:11.62

*** Psi4 exiting successfully. Buy a developer a beer!
