
    -----------------------------------------------------------------------
          Psi4: An Open-Source Ab Initio Electronic Structure Package
                               Psi4 1.3.2 release

                         Git: Rev {} zzzzzzz 


    R. M. Parrish, L. A. Burns, D. G. A. Smith, A. C. Simmonett,
    A. E. DePrince III, E. G. Hohenstein, U. Bozkaya, A. Yu. Sokolov,
    R. Di Remigio, R. M. Richard, J. F. Gonthier, A. M. James,
    H. R. McAlexander, A. Kumar, M. Saitow, X. Wang, B. P. Pritchard,
    P. Verma, H. F. Schaefer III, K. Patkowski, R. A. King, E. F. Valeev,
    F. A. Evangelista, J. M. Turney, T. D. Crawford, and C. D. Sherrill,
    J. Chem. Theory Comput. 13(7) pp 3185--3197 (2017).
    (doi: 10.1021/acs.jctc.7b00174)


                         Additional Contributions by
    P. Kraus, H. Kruse, M. H. Lechner, M. C. Schieber, R. A. Shaw,
    A. Alenaizan, R. Galvelis, Z. L. Glick, S. Lehtola, and J. P. Misiewicz

    -----------------------------------------------------------------------


    Psi4 started on: Saturday, 10 July 2021 02:34PM

    Process ID: 1471224
    Host:       thinkpad
    PSIDATADIR: /usr/share/psi4
    Memory:     500.0 MiB
    Threads:    4
    
  ==> Input File <==

--------------------------------------------------------------------------
# PBE0/def2-QZVP calculation on methylcyclohexane conformer #5 

memory 4 gb

molecule {
	    C     0.9720996685   0.0330695729  -0.3318897492
	    C     0.3235569756  -1.3050446844   0.0554571038
	    C     0.2796016137   1.1705482584   0.4083746420
	    C    -1.1703681178  -1.1739962880   0.3782545344
	    C    -1.1870623309   1.3075102013  -0.0197810080
	    C    -1.8008398350  -0.0410841244  -0.4173023050
	    C     2.4717812077   0.0115000082  -0.0918548430
	    H     0.8079059374   0.1951056591  -1.4056578331
	    H     0.8501585016  -1.7189944260   0.9229279740
	    H     0.4706158944  -2.0219579368  -0.7590601820
	    H     0.8106120207   2.1131540195   0.2443816225
	    H     0.3431013654   0.9716027139   1.4853446212
	    H    -1.3044229007  -0.9707204650   1.4466600017
	    H    -1.6833375404  -2.1197620265   0.1839905214
	    H    -1.2647997277   2.0046582787  -0.8596593487
	    H    -1.7639195440   1.7505989654   0.7978190433
	    H    -1.6401819754  -0.2256721328  -1.4853354173
	    H    -2.8844132340  -0.0195483901  -0.2732150587
	    H     2.9471805654   0.9310761445  -0.4436409694
	    H     2.6908179710  -0.0903298775   0.9759217704
	    H     2.9450889639  -0.8290126506  -0.6073234270
}

# It is beneficial to initialize larger-basis calculations with
# a small reasonable basis; use def2-SV(P) for this purpose
set basis_guess def2-SV(P)
set basis def2-QZVP
energy('pbe0')
--------------------------------------------------------------------------

  Memory set to   3.725 GiB by Python driver.

*** tstart() called on thinkpad
*** at Sat Jul 10 14:34:02 2021


  //>>>>>>>>>>>>>>>>>>>>>>>>>>>>>>>>>>>//
  //    Guess SCF, DEF2-SV(P) Basis    //
  //<<<<<<<<<<<<<<<<<<<<<<<<<<<<<<<<<<<//

   => Loading Basis Set <=

    Name: DEF2-SV(P)
    Role: ORBITAL
    Keyword: BASIS
    atoms 1-7  entry C          line    88 file /usr/share/psi4/basis/def2-sv_p_.gbs 
    atoms 8-21 entry H          line    15 file /usr/share/psi4/basis/def2-sv_p_.gbs 


         ---------------------------------------------------------
                           SCF Castup computation                  
         ---------------------------------------------------------
                                   SCF
               by Justin Turney, Rob Parrish, Andy Simmonett
                          and Daniel G. A. Smith
                              RKS Reference
                        4 Threads,   3814 MiB Core
         ---------------------------------------------------------

  ==> Geometry <==

    Molecular point group: c1
    Full point group: C1

    Geometry (in Angstrom), charge = 0, multiplicity = 1:

       Center              X                  Y                   Z               Mass       
    ------------   -----------------  -----------------  -----------------  -----------------
         C            0.972099668488     0.033069572888    -0.331889749202    12.000000000000
         C            0.323556975588    -1.305044684412     0.055457103798    12.000000000000
         C            0.279601613688     1.170548258388     0.408374641998    12.000000000000
         C           -1.170368117812    -1.173996288012     0.378254534398    12.000000000000
         C           -1.187062330912     1.307510201288    -0.019781008002    12.000000000000
         C           -1.800839835012    -0.041084124412    -0.417302305002    12.000000000000
         C            2.471781207688     0.011500008188    -0.091854843002    12.000000000000
         H            0.807905937388     0.195105659088    -1.405657833102     1.007825032230
         H            0.850158501588    -1.718994426012     0.922927973998     1.007825032230
         H            0.470615894388    -2.021957936812    -0.759060182002     1.007825032230
         H            0.810612020688     2.113154019488     0.244381622498     1.007825032230
         H            0.343101365388     0.971602713888     1.485344621198     1.007825032230
         H           -1.304422900712    -0.970720465012     1.446660001698     1.007825032230
         H           -1.683337540412    -2.119762026512     0.183990521398     1.007825032230
         H           -1.264799727712     2.004658278688    -0.859659348702     1.007825032230
         H           -1.763919544012     1.750598965388     0.797819043298     1.007825032230
         H           -1.640181975412    -0.225672132812    -1.485335417302     1.007825032230
         H           -2.884413234012    -0.019548390112    -0.273215058702     1.007825032230
         H            2.947180565388     0.931076144488    -0.443640969402     1.007825032230
         H            2.690817970988    -0.090329877512     0.975921770398     1.007825032230
         H            2.945088963888    -0.829012650612    -0.607323427002     1.007825032230

  Running in c1 symmetry.

  Rotational constants: A =      0.13921  B =      0.07423  C =      0.05482 [cm^-1]
  Rotational constants: A =   4173.31360  B =   2225.44463  C =   1643.37922 [MHz]
  Nuclear repulsion =  330.301052767388285

  Charge       = 0
  Multiplicity = 1
  Electrons    = 56
  Nalpha       = 28
  Nbeta        = 28

  ==> Algorithm <==

  SCF Algorithm Type is DF.
  DIIS enabled.
  MOM disabled.
  Fractional occupation disabled.
  Guess Type is SAD.
  Energy threshold   = 1.00e-06
  Density threshold  = 1.00e-06
  Integral threshold = 0.00e+00

  ==> Primary Basis <==

  Basis Set: DEF2-SV(P)
    Blend: DEF2-SV(P)
    Number of shells: 70
    Number of basis function: 126
    Number of Cartesian functions: 133
    Spherical Harmonics?: true
    Max angular momentum: 2

  ==> DFT Potential <==

   => Composite Functional: PBE0 <= 

    PBE0 Hyb-GGA Exchange-Correlation Functional

    C. Adamo and V. Barone, J. Chem. Phys. 110, 6158 (1999)
    M. Ernzerhof and G. E. Scuseria, J. Chem. Phys. 110, 5029 (1999)

    Deriv               =              1
    GGA                 =           TRUE
    Meta                =          FALSE

    Exchange Hybrid     =           TRUE
    MP2 Hybrid          =          FALSE

   => Exchange Functionals <=

    0.7500   Perdew, Burke & Ernzerhof

   => Exact (HF) Exchange <=

    0.2500               HF 

   => Correlation Functionals <=

    1.0000   Perdew, Burke & Ernzerhof

   => Molecular Quadrature <=

    Radial Scheme          =       TREUTLER
    Pruning Scheme         =           FLAT
    Nuclear Scheme         =       TREUTLER

    BS radius alpha        =              1
    Pruning alpha          =              1
    Radial Points          =             75
    Spherical Points       =            302
    Total Points           =         469435
    Total Blocks           =           3453
    Max Points             =            256
    Max Functions          =            125

   => Loading Basis Set <=

    Name: (DEF2-SV(P) AUX)
    Role: JKFIT
    Keyword: DF_BASIS_SCF
    atoms 1-7  entry C          line   203 file /usr/share/psi4/basis/def2-sv_p_-jkfit.gbs 
    atoms 8-21 entry H          line    23 file /usr/share/psi4/basis/def2-sv_p_-jkfit.gbs 

  ==> Pre-Iterations <==

   -------------------------------------------------------
    Irrep   Nso     Nmo     Nalpha   Nbeta   Ndocc  Nsocc
   -------------------------------------------------------
     A        126     126       0       0       0       0
   -------------------------------------------------------
    Total     126     126      28      28      28       0
   -------------------------------------------------------

  ==> Integral Setup <==

  ==> DiskDFJK: Density-Fitted J/K Matrices <==

    J tasked:                  Yes
    K tasked:                  Yes
    wK tasked:                  No
    OpenMP threads:              4
    Integrals threads:           4
    Memory [MiB]:             1464
    Algorithm:                Core
    Integral Cache:           NONE
    Schwarz Cutoff:          1E-12
    Fitting Condition:       1E-10

   => Auxiliary Basis Set <=

  Basis Set: (DEF2-SV(P) AUX)
    Blend: DEF2-SV_P_-JKFIT
    Number of shells: 259
    Number of basis function: 777
    Number of Cartesian functions: 903
    Spherical Harmonics?: true
    Max angular momentum: 4

  Cached 100.0% of DFT collocation blocks in 1.364 [GiB].

  Minimum eigenvalue in the overlap matrix is 7.3518188083E-04.
  Using Symmetric Orthogonalization.

  SCF Guess: Superposition of Atomic Densities via on-the-fly atomic UHF.

  ==> Iterations <==

                           Total Energy        Delta E     RMS |[F,P]|

   @DF-RKS iter SAD:  -274.32095171946474   -2.74321e+02   0.00000e+00 
   @DF-RKS iter   1:  -274.03732915890362    2.83623e-01   8.09742e-03 DIIS
   @DF-RKS iter   2:  -273.73951470432593    2.97814e-01   1.00566e-02 DIIS
   @DF-RKS iter   3:  -274.61447267627466   -8.74958e-01   8.22955e-04 DIIS
   @DF-RKS iter   4:  -274.61876014632173   -4.28747e-03   3.32880e-04 DIIS
   @DF-RKS iter   5:  -274.61958503161014   -8.24885e-04   7.14269e-05 DIIS
   @DF-RKS iter   6:  -274.61962520105931   -4.01694e-05   7.36528e-06 DIIS
   @DF-RKS iter   7:  -274.61962556695431   -3.65895e-07   3.55516e-06 DIIS
   @DF-RKS iter   8:  -274.61962566292976   -9.59755e-08   6.05145e-07 DIIS
  Energy and wave function converged.


  ==> Post-Iterations <==

    Orbital Energies [Eh]
    ---------------------

    Doubly Occupied:                                                      

       1A    -10.224966     2A    -10.216222     3A    -10.216106  
       4A    -10.215935     5A    -10.215051     6A    -10.214691  
       7A    -10.209158     8A     -0.854059     9A     -0.777474  
      10A     -0.750815    11A     -0.685604    12A     -0.623005  
      13A     -0.603956    14A     -0.533696    15A     -0.501974  
      16A     -0.481216    17A     -0.454988    18A     -0.426671  
      19A     -0.418720    20A     -0.392595    21A     -0.383608  
      22A     -0.374870    23A     -0.364856    24A     -0.354190  
      25A     -0.350342    26A     -0.310139    27A     -0.304366  
      28A     -0.302358  

    Virtual:                                                              

      29A      0.060940    30A      0.081396    31A      0.091186  
      32A      0.105146    33A      0.128291    34A      0.133877  
      35A      0.139106    36A      0.147461    37A      0.149856  
      38A      0.161254    39A      0.173680    40A      0.182763  
      41A      0.186385    42A      0.202332    43A      0.215496  
      44A      0.221830    45A      0.256592    46A      0.268321  
      47A      0.278155    48A      0.311959    49A      0.318103  
      50A      0.432745    51A      0.443824    52A      0.455737  
      53A      0.461341    54A      0.470631    55A      0.495310  
      56A      0.520324    57A      0.578090    58A      0.608342  
      59A      0.614244    60A      0.642009    61A      0.653995  
      62A      0.656893    63A      0.673667    64A      0.687258  
      65A      0.701395    66A      0.702888    67A      0.707348  
      68A      0.721345    69A      0.726379    70A      0.729186  
      71A      0.737178    72A      0.741400    73A      0.744321  
      74A      0.750345    75A      0.757724    76A      0.769110  
      77A      0.769418    78A      0.774682    79A      0.778248  
      80A      0.794872    81A      0.802087    82A      0.836787  
      83A      0.873237    84A      0.943159    85A      1.037092  
      86A      1.056823    87A      1.062239    88A      1.124802  
      89A      1.213608    90A      1.303250    91A      1.315596  
      92A      1.416846    93A      1.452494    94A      1.634530  
      95A      1.665111    96A      1.721349    97A      1.760695  
      98A      1.774364    99A      1.832895   100A      1.862756  
     101A      1.896584   102A      1.919658   103A      1.934181  
     104A      1.964902   105A      1.994322   106A      2.020322  
     107A      2.037017   108A      2.074858   109A      2.113179  
     110A      2.138074   111A      2.166420   112A      2.202983  
     113A      2.237284   114A      2.284565   115A      2.328090  
     116A      2.373562   117A      2.391973   118A      2.423015  
     119A      2.448983   120A      2.479626   121A      2.595288  
     122A      2.656484   123A      2.671865   124A      2.731844  
     125A      2.796680   126A      2.819980  

    Final Occupation by Irrep:
              A 
    DOCC [    28 ]

  @DF-RKS Final Energy:  -274.61962566292976

   => Energetics <=

    Nuclear Repulsion Energy =            330.3010527673882848
    One-Electron Energy =               -1023.0392860133886188
    Two-Electron Energy =                 450.7159536004161851
    DFT Exchange-Correlation Energy =     -32.5973460173455720
    Empirical Dispersion Energy =           0.0000000000000000
    VV10 Nonlocal Energy =                  0.0000000000000000
    Total Energy =                       -274.6196256629297636

Computation Completed

  //>>>>>>>>>>>>>>>>>>>>>>>>>>>>>>>>>>>//
  //                PBE0               //
  //<<<<<<<<<<<<<<<<<<<<<<<<<<<<<<<<<<<//

   => Loading Basis Set <=

    Name: DEF2-QZVP
    Role: ORBITAL
    Keyword: BASIS
    atoms 1-7  entry C          line   194 file /usr/share/psi4/basis/def2-qzvp.gbs 
    atoms 8-21 entry H          line    15 file /usr/share/psi4/basis/def2-qzvp.gbs 


         ---------------------------------------------------------
                                   SCF
               by Justin Turney, Rob Parrish, Andy Simmonett
                          and Daniel G. A. Smith
                              RKS Reference
                        4 Threads,   3814 MiB Core
         ---------------------------------------------------------

  ==> Geometry <==

    Molecular point group: c1
    Full point group: C1

    Geometry (in Angstrom), charge = 0, multiplicity = 1:

       Center              X                  Y                   Z               Mass       
    ------------   -----------------  -----------------  -----------------  -----------------
         C            0.972099668488     0.033069572888    -0.331889749202    12.000000000000
         C            0.323556975588    -1.305044684412     0.055457103798    12.000000000000
         C            0.279601613688     1.170548258388     0.408374641998    12.000000000000
         C           -1.170368117812    -1.173996288012     0.378254534398    12.000000000000
         C           -1.187062330912     1.307510201288    -0.019781008002    12.000000000000
         C           -1.800839835012    -0.041084124412    -0.417302305002    12.000000000000
         C            2.471781207688     0.011500008188    -0.091854843002    12.000000000000
         H            0.807905937388     0.195105659088    -1.405657833102     1.007825032230
         H            0.850158501588    -1.718994426012     0.922927973998     1.007825032230
         H            0.470615894388    -2.021957936812    -0.759060182002     1.007825032230
         H            0.810612020688     2.113154019488     0.244381622498     1.007825032230
         H            0.343101365388     0.971602713888     1.485344621198     1.007825032230
         H           -1.304422900712    -0.970720465012     1.446660001698     1.007825032230
         H           -1.683337540412    -2.119762026512     0.183990521398     1.007825032230
         H           -1.264799727712     2.004658278688    -0.859659348702     1.007825032230
         H           -1.763919544012     1.750598965388     0.797819043298     1.007825032230
         H           -1.640181975412    -0.225672132812    -1.485335417302     1.007825032230
         H           -2.884413234012    -0.019548390112    -0.273215058702     1.007825032230
         H            2.947180565388     0.931076144488    -0.443640969402     1.007825032230
         H            2.690817970988    -0.090329877512     0.975921770398     1.007825032230
         H            2.945088963888    -0.829012650612    -0.607323427002     1.007825032230

  Running in c1 symmetry.

  Rotational constants: A =      0.13921  B =      0.07423  C =      0.05482 [cm^-1]
  Rotational constants: A =   4173.31360  B =   2225.44463  C =   1643.37922 [MHz]
  Nuclear repulsion =  330.301052767388285

  Charge       = 0
  Multiplicity = 1
  Electrons    = 56
  Nalpha       = 28
  Nbeta        = 28

  ==> Algorithm <==

  SCF Algorithm Type is DF.
  DIIS enabled.
  MOM disabled.
  Fractional occupation disabled.
  Guess Type is SAD.
  Energy threshold   = 1.00e-06
  Density threshold  = 1.00e-06
  Integral threshold = 0.00e+00

  ==> Primary Basis <==

  Basis Set: DEF2-QZVP
    Blend: DEF2-QZVP
    Number of shells: 259
    Number of basis function: 819
    Number of Cartesian functions: 994
    Spherical Harmonics?: true
    Max angular momentum: 4

  ==> DFT Potential <==

   => Composite Functional: PBE0 <= 

    PBE0 Hyb-GGA Exchange-Correlation Functional

    C. Adamo and V. Barone, J. Chem. Phys. 110, 6158 (1999)
    M. Ernzerhof and G. E. Scuseria, J. Chem. Phys. 110, 5029 (1999)

    Deriv               =              1
    GGA                 =           TRUE
    Meta                =          FALSE

    Exchange Hybrid     =           TRUE
    MP2 Hybrid          =          FALSE

   => Exchange Functionals <=

    0.7500   Perdew, Burke & Ernzerhof

   => Exact (HF) Exchange <=

    0.2500               HF 

   => Correlation Functionals <=

    1.0000   Perdew, Burke & Ernzerhof

   => Molecular Quadrature <=

    Radial Scheme          =       TREUTLER
    Pruning Scheme         =           FLAT
    Nuclear Scheme         =       TREUTLER

    BS radius alpha        =              1
    Pruning alpha          =              1
    Radial Points          =             75
    Spherical Points       =            302
    Total Points           =         474031
    Total Blocks           =           3478
    Max Points             =            256
    Max Functions          =            718

   => Loading Basis Set <=

    Name: (DEF2-QZVP AUX)
    Role: JKFIT
    Keyword: DF_BASIS_SCF
    atoms 1-7  entry C          line   203 file /usr/share/psi4/basis/def2-qzvp-jkfit.gbs 
    atoms 8-21 entry H          line    23 file /usr/share/psi4/basis/def2-qzvp-jkfit.gbs 


  Computing basis projection from DEF2-SV(P) to DEF2-QZVP

  ==> Pre-Iterations <==

   -------------------------------------------------------
    Irrep   Nso     Nmo     Nalpha   Nbeta   Ndocc  Nsocc
   -------------------------------------------------------
     A        819     819       0       0       0       0
   -------------------------------------------------------
    Total     819     819      28      28      28       0
   -------------------------------------------------------

  ==> Integral Setup <==

  ==> DiskDFJK: Density-Fitted J/K Matrices <==

    J tasked:                  Yes
    K tasked:                  Yes
    wK tasked:                  No
    OpenMP threads:              4
    Integrals threads:           4
    Memory [MiB]:             1820
    Algorithm:                Disk
    Integral Cache:           NONE
    Schwarz Cutoff:          1E-12
    Fitting Condition:       1E-10

   => Auxiliary Basis Set <=

  Basis Set: (DEF2-QZVP AUX)
    Blend: DEF2-QZVP-JKFIT
    Number of shells: 259
    Number of basis function: 777
    Number of Cartesian functions: 903
    Spherical Harmonics?: true
    Max angular momentum: 4

  Cached 16.7% of DFT collocation blocks in 1.053 [GiB].

  Minimum eigenvalue in the overlap matrix is 9.2057099292E-06.
  Using Symmetric Orthogonalization.

  SCF Guess: Orbitals guess was supplied from a previous computation.

  ==> Iterations <==

                           Total Energy        Delta E     RMS |[F,P]|

   @DF-RKS iter   0:  -274.73379812659272   -2.74734e+02   3.69201e-03 
   @DF-RKS iter   1:  -274.95612837717317   -2.22330e-01   5.62488e-05 DIIS
   @DF-RKS iter   2:  -274.95612047413346    7.90304e-06   5.34294e-05 DIIS
   @DF-RKS iter   3:  -274.95705075296132   -9.30279e-04   1.21035e-05 DIIS
   @DF-RKS iter   4:  -274.95709449148291   -4.37385e-05   3.61582e-06 DIIS
   @DF-RKS iter   5:  -274.95709841331609   -3.92183e-06   5.40304e-07 DIIS
   @DF-RKS iter   6:  -274.95709849944598   -8.61299e-08   9.31251e-08 DIIS
  Energy and wave function converged.


  ==> Post-Iterations <==

    Orbital Energies [Eh]
    ---------------------

    Doubly Occupied:                                                      

       1A    -10.219288     2A    -10.211919     3A    -10.211517  
       4A    -10.211241     5A    -10.210551     6A    -10.209932  
       7A    -10.205098     8A     -0.859348     9A     -0.783546  
      10A     -0.756824    11A     -0.691673    12A     -0.627568  
      13A     -0.608280    14A     -0.536709    15A     -0.500663  
      16A     -0.479775    17A     -0.453376    18A     -0.425641  
      19A     -0.417475    20A     -0.390926    21A     -0.381390  
      22A     -0.372565    23A     -0.362818    24A     -0.352461  
      25A     -0.348512    26A     -0.308091    27A     -0.302298  
      28A     -0.300262  

    Virtual:                                                              

      29A      0.028317    30A      0.038264    31A      0.043754  
      32A      0.052085    33A      0.073466    34A      0.075632  
      35A      0.083005    36A      0.086410    37A      0.092130  
      38A      0.106633    39A      0.116886    40A      0.117472  
      41A      0.123362    42A      0.133811    43A      0.144776  
      44A      0.150198    45A      0.157840    46A      0.175009  
      47A      0.178244    48A      0.187767    49A      0.190880  
      50A      0.202944    51A      0.213081    52A      0.221671  
      53A      0.224449    54A      0.234485    55A      0.248085  
      56A      0.256903    57A      0.263301    58A      0.271364  
      59A      0.277421    60A      0.289611    61A      0.293369  
      62A      0.296737    63A      0.303985    64A      0.312336  
      65A      0.319845    66A      0.323424    67A      0.328688  
      68A      0.338024    69A      0.341288    70A      0.344640  
      71A      0.352875    72A      0.355163    73A      0.360089  
      74A      0.370714    75A      0.372867    76A      0.376967  
      77A      0.380861    78A      0.384552    79A      0.392522  
      80A      0.410806    81A      0.415058    82A      0.427493  
      83A      0.461779    84A      0.486182    85A      0.499146  
      86A      0.512271    87A      0.534035    88A      0.544288  
      89A      0.546542    90A      0.553850    91A      0.569252  
      92A      0.574490    93A      0.578776    94A      0.589601  
      95A      0.600171    96A      0.604762    97A      0.615030  
      98A      0.623514    99A      0.628383   100A      0.640491  
     101A      0.644326   102A      0.651517   103A      0.662154  
     104A      0.668946   105A      0.679622   106A      0.696031  
     107A      0.707570   108A      0.714652   109A      0.750119  
     110A      0.772308   111A      0.785903   112A      0.786267  
     113A      0.794993   114A      0.807324   115A      0.810691  
     116A      0.812829   117A      0.820305   118A      0.830813  
     119A      0.832262   120A      0.839855   121A      0.845842  
     122A      0.848325   123A      0.853908   124A      0.861224  
     125A      0.864067   126A      0.878191   127A      0.883428  
     128A      0.887348   129A      0.889790   130A      0.893952  
     131A      0.902017   132A      0.910137   133A      0.922628  
     134A      0.927715   135A      0.937238   136A      0.953473  
     137A      0.960603   138A      0.964776   139A      0.981488  
     140A      0.984880   141A      1.002665   142A      1.016806  
     143A      1.024585   144A      1.038961   145A      1.044244  
     146A      1.059939   147A      1.064182   148A      1.073375  
     149A      1.080229   150A      1.090589   151A      1.104314  
     152A      1.117232   153A      1.123125   154A      1.137914  
     155A      1.156888   156A      1.160881   157A      1.178550  
     158A      1.184382   159A      1.197574   160A      1.205916  
     161A      1.217625   162A      1.227103   163A      1.235999  
     164A      1.242183   165A      1.260785   166A      1.273621  
     167A      1.277898   168A      1.285461   169A      1.290904  
     170A      1.316985   171A      1.328893   172A      1.339089  
     173A      1.345105   174A      1.364569   175A      1.381906  
     176A      1.391034   177A      1.419006   178A      1.434385  
     179A      1.444113   180A      1.448641   181A      1.467553  
     182A      1.471789   183A      1.477937   184A      1.497977  
     185A      1.501388   186A      1.519590   187A      1.521796  
     188A      1.526054   189A      1.539795   190A      1.560066  
     191A      1.578070   192A      1.584182   193A      1.603942  
     194A      1.613515   195A      1.624296   196A      1.648254  
     197A      1.657558   198A      1.677784   199A      1.706105  
     200A      1.728943   201A      1.744376   202A      1.748404  
     203A      1.762206   204A      1.767272   205A      1.787996  
     206A      1.804912   207A      1.825509   208A      1.844397  
     209A      1.850223   210A      1.871471   211A      1.890654  
     212A      1.908336   213A      1.931506   214A      1.943120  
     215A      1.944715   216A      1.957310   217A      1.986733  
     218A      1.996732   219A      2.001653   220A      2.009838  
     221A      2.015116   222A      2.031329   223A      2.038575  
     224A      2.046658   225A      2.054996   226A      2.059183  
     227A      2.076628   228A      2.077036   229A      2.090296  
     230A      2.101158   231A      2.104322   232A      2.118163  
     233A      2.131854   234A      2.138274   235A      2.145887  
     236A      2.148472   237A      2.161454   238A      2.164701  
     239A      2.177097   240A      2.188345   241A      2.198861  
     242A      2.200445   243A      2.212794   244A      2.216421  
     245A      2.227671   246A      2.235667   247A      2.239445  
     248A      2.244580   249A      2.254634   250A      2.261050  
     251A      2.268343   252A      2.275867   253A      2.290070  
     254A      2.310759   255A      2.316309   256A      2.324997  
     257A      2.328226   258A      2.344250   259A      2.358098  
     260A      2.373217   261A      2.381232   262A      2.385811  
     263A      2.403203   264A      2.414747   265A      2.428291  
     266A      2.429085   267A      2.442492   268A      2.467799  
     269A      2.476112   270A      2.485793   271A      2.500594  
     272A      2.510438   273A      2.515847   274A      2.526983  
     275A      2.541380   276A      2.548723   277A      2.553144  
     278A      2.570496   279A      2.576576   280A      2.591145  
     281A      2.596864   282A      2.610129   283A      2.616422  
     284A      2.626808   285A      2.636555   286A      2.644568  
     287A      2.662613   288A      2.672336   289A      2.681818  
     290A      2.689998   291A      2.703973   292A      2.715770  
     293A      2.726322   294A      2.741282   295A      2.750217  
     296A      2.753958   297A      2.771874   298A      2.776177  
     299A      2.794515   300A      2.801850   301A      2.811891  
     302A      2.827534   303A      2.835321   304A      2.849772  
     305A      2.867356   306A      2.868301   307A      2.882820  
     308A      2.895710   309A      2.908155   310A      2.917240  
     311A      2.918699   312A      2.926532   313A      2.936569  
     314A      2.956134   315A      2.961471   316A      2.964457  
     317A      2.975176   318A      2.987481   319A      2.991669  
     320A      3.000710   321A      3.015743   322A      3.020414  
     323A      3.026534   324A      3.034105   325A      3.042755  
     326A      3.069381   327A      3.075107   328A      3.082904  
     329A      3.099429   330A      3.109501   331A      3.132462  
     332A      3.146850   333A      3.153843   334A      3.161046  
     335A      3.175968   336A      3.183665   337A      3.188249  
     338A      3.204192   339A      3.205668   340A      3.226090  
     341A      3.240835   342A      3.250966   343A      3.267587  
     344A      3.282266   345A      3.283456   346A      3.292081  
     347A      3.315631   348A      3.321673   349A      3.347744  
     350A      3.360626   351A      3.374471   352A      3.389955  
     353A      3.399716   354A      3.415983   355A      3.421365  
     356A      3.428825   357A      3.449851   358A      3.455916  
     359A      3.486117   360A      3.496468   361A      3.515268  
     362A      3.518394   363A      3.526658   364A      3.544084  
     365A      3.565167   366A      3.593495   367A      3.598534  
     368A      3.605581   369A      3.617445   370A      3.648864  
     371A      3.657415   372A      3.664809   373A      3.672949  
     374A      3.685050   375A      3.699990   376A      3.710928  
     377A      3.723570   378A      3.734052   379A      3.743498  
     380A      3.758183   381A      3.761203   382A      3.791287  
     383A      3.810592   384A      3.818644   385A      3.829127  
     386A      3.844949   387A      3.863470   388A      3.875930  
     389A      3.879294   390A      3.922133   391A      3.937105  
     392A      3.940725   393A      3.949293   394A      3.954140  
     395A      3.969526   396A      3.990665   397A      3.998844  
     398A      4.029046   399A      4.034976   400A      4.042407  
     401A      4.050280   402A      4.060219   403A      4.083573  
     404A      4.099328   405A      4.118055   406A      4.135233  
     407A      4.163865   408A      4.191296   409A      4.246209  
     410A      4.265205   411A      4.311788   412A      4.344328  
     413A      4.393125   414A      4.426345   415A      4.465016  
     416A      4.504704   417A      4.514610   418A      4.567134  
     419A      4.624457   420A      4.654112   421A      4.807652  
     422A      4.825484   423A      4.851420   424A      4.859475  
     425A      4.883771   426A      4.896334   427A      4.926450  
     428A      4.968026   429A      4.970610   430A      5.072103  
     431A      5.074695   432A      5.160474   433A      5.166697  
     434A      5.211419   435A      5.227748   436A      5.238193  
     437A      5.266952   438A      5.289331   439A      5.361242  
     440A      5.433969   441A      5.442789   442A      5.452551  
     443A      5.487190   444A      5.511453   445A      5.517440  
     446A      5.560735   447A      5.577542   448A      5.581400  
     449A      5.592475   450A      5.637966   451A      5.655671  
     452A      5.669017   453A      5.704920   454A      5.711276  
     455A      5.739680   456A      5.744768   457A      5.760687  
     458A      5.780096   459A      5.791706   460A      5.798037  
     461A      5.822493   462A      5.847514   463A      5.856788  
     464A      5.857535   465A      5.872107   466A      5.884545  
     467A      5.904899   468A      5.909416   469A      5.925068  
     470A      5.934248   471A      5.943589   472A      5.954392  
     473A      5.964373   474A      5.971762   475A      5.980756  
     476A      5.986609   477A      5.998145   478A      6.006819  
     479A      6.020819   480A      6.042705   481A      6.058930  
     482A      6.070104   483A      6.080373   484A      6.096357  
     485A      6.098857   486A      6.102793   487A      6.109551  
     488A      6.115351   489A      6.122441   490A      6.129874  
     491A      6.136796   492A      6.143259   493A      6.158681  
     494A      6.168117   495A      6.177253   496A      6.188677  
     497A      6.211091   498A      6.220878   499A      6.234007  
     500A      6.241846   501A      6.244508   502A      6.253809  
     503A      6.267928   504A      6.281650   505A      6.289362  
     506A      6.303030   507A      6.307155   508A      6.317990  
     509A      6.322625   510A      6.339214   511A      6.347630  
     512A      6.354948   513A      6.364438   514A      6.374703  
     515A      6.394279   516A      6.400180   517A      6.409980  
     518A      6.413026   519A      6.422113   520A      6.427402  
     521A      6.432271   522A      6.447187   523A      6.457894  
     524A      6.476547   525A      6.492298   526A      6.513899  
     527A      6.522812   528A      6.529178   529A      6.539772  
     530A      6.547547   531A      6.560632   532A      6.583163  
     533A      6.587549   534A      6.606720   535A      6.612851  
     536A      6.622960   537A      6.635677   538A      6.650142  
     539A      6.659138   540A      6.672124   541A      6.676632  
     542A      6.682256   543A      6.700987   544A      6.710494  
     545A      6.728178   546A      6.740892   547A      6.763406  
     548A      6.778307   549A      6.781675   550A      6.801225  
     551A      6.809746   552A      6.816690   553A      6.833593  
     554A      6.850411   555A      6.863317   556A      6.879633  
     557A      6.892929   558A      6.900382   559A      6.906240  
     560A      6.920693   561A      6.948165   562A      6.961125  
     563A      6.969974   564A      6.978792   565A      6.990885  
     566A      7.003256   567A      7.015347   568A      7.026054  
     569A      7.045603   570A      7.068922   571A      7.078539  
     572A      7.089593   573A      7.110540   574A      7.123349  
     575A      7.135580   576A      7.154589   577A      7.171838  
     578A      7.187532   579A      7.216419   580A      7.226950  
     581A      7.239999   582A      7.254178   583A      7.279405  
     584A      7.303505   585A      7.314128   586A      7.326270  
     587A      7.358512   588A      7.372513   589A      7.385673  
     590A      7.400938   591A      7.427518   592A      7.434498  
     593A      7.443076   594A      7.451556   595A      7.462248  
     596A      7.488068   597A      7.495896   598A      7.512871  
     599A      7.517375   600A      7.527705   601A      7.539276  
     602A      7.567720   603A      7.579485   604A      7.592837  
     605A      7.602275   606A      7.603597   607A      7.610866  
     608A      7.638928   609A      7.646843   610A      7.653251  
     611A      7.661712   612A      7.679843   613A      7.692381  
     614A      7.703866   615A      7.715169   616A      7.725632  
     617A      7.730301   618A      7.738091   619A      7.748263  
     620A      7.759391   621A      7.769107   622A      7.780367  
     623A      7.788035   624A      7.815557   625A      7.828730  
     626A      7.834893   627A      7.843319   628A      7.857090  
     629A      7.858157   630A      7.876862   631A      7.892864  
     632A      7.918761   633A      7.920218   634A      7.927586  
     635A      7.952942   636A      7.960750   637A      7.969542  
     638A      7.975665   639A      7.983239   640A      7.988943  
     641A      8.010537   642A      8.018654   643A      8.026865  
     644A      8.034762   645A      8.044151   646A      8.045402  
     647A      8.049923   648A      8.071089   649A      8.078012  
     650A      8.101667   651A      8.113625   652A      8.119016  
     653A      8.134818   654A      8.144259   655A      8.160942  
     656A      8.172791   657A      8.186135   658A      8.197096  
     659A      8.230907   660A      8.242533   661A      8.246277  
     662A      8.265255   663A      8.278650   664A      8.308329  
     665A      8.314655   666A      8.322267   667A      8.338891  
     668A      8.351733   669A      8.366470   670A      8.379833  
     671A      8.393413   672A      8.404985   673A      8.442498  
     674A      8.444993   675A      8.453041   676A      8.475224  
     677A      8.477296   678A      8.485496   679A      8.496231  
     680A      8.516885   681A      8.534096   682A      8.541215  
     683A      8.567647   684A      8.569009   685A      8.575468  
     686A      8.585825   687A      8.594504   688A      8.598575  
     689A      8.603922   690A      8.612472   691A      8.637795  
     692A      8.642298   693A      8.652451   694A      8.659421  
     695A      8.668166   696A      8.680131   697A      8.688721  
     698A      8.697432   699A      8.716490   700A      8.728801  
     701A      8.747957   702A      8.754399   703A      8.761182  
     704A      8.779632   705A      8.791895   706A      8.796280  
     707A      8.821802   708A      8.830676   709A      8.848440  
     710A      8.858833   711A      8.871699   712A      8.888096  
     713A      8.914436   714A      8.928967   715A      8.941855  
     716A      8.959719   717A      8.966847   718A      8.969379  
     719A      9.002076   720A      9.006078   721A      9.024004  
     722A      9.032796   723A      9.051430   724A      9.062391  
     725A      9.084386   726A      9.094630   727A      9.104773  
     728A      9.123815   729A      9.141125   730A      9.159038  
     731A      9.174726   732A      9.201926   733A      9.233273  
     734A      9.238668   735A      9.251105   736A      9.281464  
     737A      9.286646   738A      9.318433   739A      9.345089  
     740A      9.353288   741A      9.360869   742A      9.441765  
     743A      9.492468   744A      9.561271   745A      9.599442  
     746A      9.602355   747A      9.609991   748A      9.655363  
     749A      9.732575   750A      9.764259   751A      9.785143  
     752A      9.790448   753A      9.808269   754A      9.831384  
     755A      9.862297   756A      9.879166   757A      9.901137  
     758A      9.928607   759A      9.953478   760A      9.964269  
     761A      9.978245   762A      9.985686   763A      9.993347  
     764A     10.004254   765A     10.059322   766A     10.087025  
     767A     10.093598   768A     10.122376   769A     10.136174  
     770A     10.157140   771A     10.163359   772A     10.188980  
     773A     10.193596   774A     10.208307   775A     10.225850  
     776A     10.238690   777A     10.251667   778A     10.281082  
     779A     10.287759   780A     10.304851   781A     10.328506  
     782A     10.351415   783A     10.362347   784A     10.455215  
     785A     10.479710   786A     10.547842   787A     10.557659  
     788A     10.603573   789A     10.639448   790A     10.655264  
     791A     10.691504   792A     12.171706   793A     12.287568  
     794A     12.423090   795A     12.468142   796A     12.496315  
     797A     12.510306   798A     12.632168   799A     13.052728  
     800A     13.160968   801A     13.190463   802A     13.251222  
     803A     13.284614   804A     13.343656   805A     13.355970  
     806A     29.140928   807A     29.166356   808A     29.180989  
     809A     29.193273   810A     29.252116   811A     29.268639  
     812A     29.306955   813A    148.380239   814A    148.412889  
     815A    148.424101   816A    148.463168   817A    148.505182  
     818A    148.532415   819A    148.582940  

    Final Occupation by Irrep:
              A 
    DOCC [    28 ]

  @DF-RKS Final Energy:  -274.95709849944598

   => Energetics <=

    Nuclear Repulsion Energy =            330.3010527673882848
    One-Electron Energy =               -1023.7146834120649146
    Two-Electron Energy =                 451.1104213825365719
    DFT Exchange-Correlation Energy =     -32.6538892373058758
    Empirical Dispersion Energy =           0.0000000000000000
    VV10 Nonlocal Energy =                  0.0000000000000000
    Total Energy =                       -274.9570984994459764

Computation Completed


Properties will be evaluated at   0.000000,   0.000000,   0.000000 [a0]

Properties computed using the SCF density matrix

  Nuclear Dipole Moment: [e a0]
     X:     1.2416      Y:    -0.0279      Z:     0.2092

  Electronic Dipole Moment: [e a0]
     X:    -1.2815      Y:     0.0306      Z:    -0.2419

  Dipole Moment: [e a0]
     X:    -0.0399      Y:     0.0027      Z:    -0.0327     Total:     0.0516

  Dipole Moment: [D]
     X:    -0.1014      Y:     0.0068      Z:    -0.0830     Total:     0.1313


*** tstop() called on thinkpad at Sat Jul 10 14:36:37 2021
Module time:
	user time   =     524.46 seconds =       8.74 minutes
	system time =      13.98 seconds =       0.23 minutes
	total time  =        155 seconds =       2.58 minutes
Total time:
	user time   =     524.46 seconds =       8.74 minutes
	system time =      13.98 seconds =       0.23 minutes
	total time  =        155 seconds =       2.58 minutes

    Psi4 stopped on: Saturday, 10 July 2021 02:36PM
    Psi4 wall time for execution: 0:02:34.68

*** Psi4 exiting successfully. Buy a developer a beer!
