
    -----------------------------------------------------------------------
          Psi4: An Open-Source Ab Initio Electronic Structure Package
                               Psi4 1.3.2 release

                         Git: Rev {} zzzzzzz 


    R. M. Parrish, L. A. Burns, D. G. A. Smith, A. C. Simmonett,
    A. E. DePrince III, E. G. Hohenstein, U. Bozkaya, A. Yu. Sokolov,
    R. Di Remigio, R. M. Richard, J. F. Gonthier, A. M. James,
    H. R. McAlexander, A. Kumar, M. Saitow, X. Wang, B. P. Pritchard,
    P. Verma, H. F. Schaefer III, K. Patkowski, R. A. King, E. F. Valeev,
    F. A. Evangelista, J. M. Turney, T. D. Crawford, and C. D. Sherrill,
    J. Chem. Theory Comput. 13(7) pp 3185--3197 (2017).
    (doi: 10.1021/acs.jctc.7b00174)


                         Additional Contributions by
    P. Kraus, H. Kruse, M. H. Lechner, M. C. Schieber, R. A. Shaw,
    A. Alenaizan, R. Galvelis, Z. L. Glick, S. Lehtola, and J. P. Misiewicz

    -----------------------------------------------------------------------


    Psi4 started on: Tuesday, 18 January 2022 09:50PM

    Process ID: 838826
    Host:       lenovo
    PSIDATADIR: /usr/share/psi4
    Memory:     500.0 MiB
    Threads:    4
    
  ==> Input File <==

--------------------------------------------------------------------------
# PBE0/def2-QZVP calculation on methylcyclohexane conformer #2 

memory 4 gb

molecule {
	    C    -0.9722110106  -0.0327178145  -0.3317394209
	    C    -0.3230575991   1.3051763356   0.0549465016
	    C    -0.2799358137  -1.1703549653   0.4084020749
	    C     1.1707491624   1.1735533229   0.3780596124
	    C     1.1865243780  -1.3080141347  -0.0202102127
	    C     1.8009202197   0.0403620054  -0.4174616034
	    C    -2.4717798740  -0.0105506963  -0.0908392374
	    H    -0.8087844643  -0.1950236872  -1.4056295336
	    H    -0.8495212096   1.7199328933   0.9221690658
	    H    -0.4695454065   2.0218373804  -0.7599221104
	    H    -0.8113728409  -2.1127804385   0.2447639560
	    H    -0.3428586988  -0.9712230168   1.4854308307
	    H     1.3043952140   0.9702107563   1.4465484474
	    H     1.6840387395   2.1191808048   0.1839931571
	    H     1.2636624230  -2.0050932080  -0.8602184482
	    H     1.7632973914  -1.7516361470   0.7971908469
	    H     1.6407454705   0.2251060645  -1.4855926815
	    H     2.8844283912   0.0183001103  -0.2730171679
	    H    -2.6900359915   0.0903337794   0.9772603697
	    H    -2.9448589677   0.8307839411  -0.6052679767
	    H    -2.9477420718  -0.9296150780  -0.4433568897
}

# It is beneficial to initialize larger-basis calculations with
# a small reasonable basis; use def2-SV(P) for this purpose
set basis_guess def2-SV(P)
set basis def2-QZVP
energy('pbe0')
--------------------------------------------------------------------------

  Memory set to   3.725 GiB by Python driver.

*** tstart() called on lenovo
*** at Tue Jan 18 21:50:01 2022


  //>>>>>>>>>>>>>>>>>>>>>>>>>>>>>>>>>>>//
  //    Guess SCF, DEF2-SV(P) Basis    //
  //<<<<<<<<<<<<<<<<<<<<<<<<<<<<<<<<<<<//

   => Loading Basis Set <=

    Name: DEF2-SV(P)
    Role: ORBITAL
    Keyword: BASIS
    atoms 1-7  entry C          line    88 file /usr/share/psi4/basis/def2-sv_p_.gbs 
    atoms 8-21 entry H          line    15 file /usr/share/psi4/basis/def2-sv_p_.gbs 


         ---------------------------------------------------------
                           SCF Castup computation                  
         ---------------------------------------------------------
                                   SCF
               by Justin Turney, Rob Parrish, Andy Simmonett
                          and Daniel G. A. Smith
                              RKS Reference
                        4 Threads,   3814 MiB Core
         ---------------------------------------------------------

  ==> Geometry <==

    Molecular point group: c1
    Full point group: C1

    Geometry (in Angstrom), charge = 0, multiplicity = 1:

       Center              X                  Y                   Z               Mass       
    ------------   -----------------  -----------------  -----------------  -----------------
         C           -0.972211010586    -0.032717814511    -0.331739420902    12.000000000000
         C           -0.323057599086     1.305176335589     0.054946501598    12.000000000000
         C           -0.279935813686    -1.170354965311     0.408402074898    12.000000000000
         C            1.170749162414     1.173553322889     0.378059612398    12.000000000000
         C            1.186524378014    -1.308014134711    -0.020210212702    12.000000000000
         C            1.800920219714     0.040362005389    -0.417461603402    12.000000000000
         C           -2.471779873986    -0.010550696311    -0.090839237402    12.000000000000
         H           -0.808784464286    -0.195023687211    -1.405629533602     1.007825032230
         H           -0.849521209586     1.719932893289     0.922169065798     1.007825032230
         H           -0.469545406486     2.021837380389    -0.759922110402     1.007825032230
         H           -0.811372840886    -2.112780438511     0.244763955998     1.007825032230
         H           -0.342858698786    -0.971223016811     1.485430830698     1.007825032230
         H            1.304395214014     0.970210756289     1.446548447398     1.007825032230
         H            1.684038739514     2.119180804789     0.183993157098     1.007825032230
         H            1.263662423014    -2.005093208011    -0.860218448202     1.007825032230
         H            1.763297391414    -1.751636147011     0.797190846898     1.007825032230
         H            1.640745470514     0.225106064489    -1.485592681502     1.007825032230
         H            2.884428391214     0.018300110289    -0.273017167902     1.007825032230
         H           -2.690035991486     0.090333779389     0.977260369698     1.007825032230
         H           -2.944858967686     0.830783941089    -0.605267976702     1.007825032230
         H           -2.947742071786    -0.929615078011    -0.443356889702     1.007825032230

  Running in c1 symmetry.

  Rotational constants: A =      0.13921  B =      0.07423  C =      0.05482 [cm^-1]
  Rotational constants: A =   4173.37434  B =   2225.48720  C =   1643.38170 [MHz]
  Nuclear repulsion =  330.300707310715211

  Charge       = 0
  Multiplicity = 1
  Electrons    = 56
  Nalpha       = 28
  Nbeta        = 28

  ==> Algorithm <==

  SCF Algorithm Type is DF.
  DIIS enabled.
  MOM disabled.
  Fractional occupation disabled.
  Guess Type is SAD.
  Energy threshold   = 1.00e-06
  Density threshold  = 1.00e-06
  Integral threshold = 0.00e+00

  ==> Primary Basis <==

  Basis Set: DEF2-SV(P)
    Blend: DEF2-SV(P)
    Number of shells: 70
    Number of basis function: 126
    Number of Cartesian functions: 133
    Spherical Harmonics?: true
    Max angular momentum: 2

  ==> DFT Potential <==

   => Composite Functional: PBE0 <= 

    PBE0 Hyb-GGA Exchange-Correlation Functional

    C. Adamo and V. Barone, J. Chem. Phys. 110, 6158 (1999)
    M. Ernzerhof and G. E. Scuseria, J. Chem. Phys. 110, 5029 (1999)

    Deriv               =              1
    GGA                 =           TRUE
    Meta                =          FALSE

    Exchange Hybrid     =           TRUE
    MP2 Hybrid          =          FALSE

   => Exchange Functionals <=

    0.7500   Perdew, Burke & Ernzerhof

   => Exact (HF) Exchange <=

    0.2500               HF 

   => Correlation Functionals <=

    1.0000   Perdew, Burke & Ernzerhof

   => Molecular Quadrature <=

    Radial Scheme          =       TREUTLER
    Pruning Scheme         =           FLAT
    Nuclear Scheme         =       TREUTLER

    BS radius alpha        =              1
    Pruning alpha          =              1
    Radial Points          =             75
    Spherical Points       =            302
    Total Points           =         469437
    Total Blocks           =           3446
    Max Points             =            256
    Max Functions          =            125

   => Loading Basis Set <=

    Name: (DEF2-SV(P) AUX)
    Role: JKFIT
    Keyword: DF_BASIS_SCF
    atoms 1-7  entry C          line   203 file /usr/share/psi4/basis/def2-sv_p_-jkfit.gbs 
    atoms 8-21 entry H          line    23 file /usr/share/psi4/basis/def2-sv_p_-jkfit.gbs 

  ==> Pre-Iterations <==

   -------------------------------------------------------
    Irrep   Nso     Nmo     Nalpha   Nbeta   Ndocc  Nsocc
   -------------------------------------------------------
     A        126     126       0       0       0       0
   -------------------------------------------------------
    Total     126     126      28      28      28       0
   -------------------------------------------------------

  ==> Integral Setup <==

  ==> DiskDFJK: Density-Fitted J/K Matrices <==

    J tasked:                  Yes
    K tasked:                  Yes
    wK tasked:                  No
    OpenMP threads:              4
    Integrals threads:           4
    Memory [MiB]:             1464
    Algorithm:                Core
    Integral Cache:           NONE
    Schwarz Cutoff:          1E-12
    Fitting Condition:       1E-10

   => Auxiliary Basis Set <=

  Basis Set: (DEF2-SV(P) AUX)
    Blend: DEF2-SV_P_-JKFIT
    Number of shells: 259
    Number of basis function: 777
    Number of Cartesian functions: 903
    Spherical Harmonics?: true
    Max angular momentum: 4

  Cached 100.0% of DFT collocation blocks in 1.364 [GiB].

  Minimum eigenvalue in the overlap matrix is 7.3498397525E-04.
  Using Symmetric Orthogonalization.

  SCF Guess: Superposition of Atomic Densities via on-the-fly atomic UHF.

  ==> Iterations <==

                           Total Energy        Delta E     RMS |[F,P]|

   @DF-RKS iter SAD:  -274.32089250042679   -2.74321e+02   0.00000e+00 
   @DF-RKS iter   1:  -274.03732241113960    2.83570e-01   8.09745e-03 DIIS
   @DF-RKS iter   2:  -273.73940269528737    2.97920e-01   1.00572e-02 DIIS
   @DF-RKS iter   3:  -274.61447776179023   -8.75075e-01   8.22957e-04 DIIS
   @DF-RKS iter   4:  -274.61876501897120   -4.28726e-03   3.32929e-04 DIIS
   @DF-RKS iter   5:  -274.61959015157385   -8.25133e-04   7.14414e-05 DIIS
   @DF-RKS iter   6:  -274.61963033784724   -4.01863e-05   7.36623e-06 DIIS
   @DF-RKS iter   7:  -274.61963070388100   -3.66034e-07   3.55519e-06 DIIS
   @DF-RKS iter   8:  -274.61963079986123   -9.59802e-08   6.05175e-07 DIIS
  Energy and wave function converged.


  ==> Post-Iterations <==

    Orbital Energies [Eh]
    ---------------------

    Doubly Occupied:                                                      

       1A    -10.224963     2A    -10.216225     3A    -10.216116  
       4A    -10.215945     5A    -10.215050     6A    -10.214696  
       7A    -10.209174     8A     -0.854062     9A     -0.777471  
      10A     -0.750818    11A     -0.685587    12A     -0.623010  
      13A     -0.603942    14A     -0.533684    15A     -0.501979  
      16A     -0.481206    17A     -0.454991    18A     -0.426667  
      19A     -0.418724    20A     -0.392588    21A     -0.383608  
      22A     -0.374865    23A     -0.364847    24A     -0.354201  
      25A     -0.350328    26A     -0.310106    27A     -0.304390  
      28A     -0.302360  

    Virtual:                                                              

      29A      0.060936    30A      0.081384    31A      0.091184  
      32A      0.105144    33A      0.128296    34A      0.133879  
      35A      0.139113    36A      0.147454    37A      0.149819  
      38A      0.161239    39A      0.173673    40A      0.182739  
      41A      0.186380    42A      0.202300    43A      0.215514  
      44A      0.221829    45A      0.256564    46A      0.268308  
      47A      0.278168    48A      0.311978    49A      0.318148  
      50A      0.432744    51A      0.443861    52A      0.455740  
      53A      0.461343    54A      0.470681    55A      0.495288  
      56A      0.520291    57A      0.578036    58A      0.608355  
      59A      0.614295    60A      0.642023    61A      0.653983  
      62A      0.656882    63A      0.673705    64A      0.687250  
      65A      0.701417    66A      0.702876    67A      0.707351  
      68A      0.721328    69A      0.726362    70A      0.729193  
      71A      0.737181    72A      0.741381    73A      0.744302  
      74A      0.750349    75A      0.757697    76A      0.769088  
      77A      0.769364    78A      0.774635    79A      0.778215  
      80A      0.794855    81A      0.802072    82A      0.836736  
      83A      0.873331    84A      0.943130    85A      1.036932  
      86A      1.056736    87A      1.062157    88A      1.124741  
      89A      1.213630    90A      1.303429    91A      1.315404  
      92A      1.416818    93A      1.452500    94A      1.634562  
      95A      1.665139    96A      1.721349    97A      1.760647  
      98A      1.774370    99A      1.832859   100A      1.862757  
     101A      1.896605   102A      1.919698   103A      1.934174  
     104A      1.964917   105A      1.994352   106A      2.020226  
     107A      2.036978   108A      2.074926   109A      2.113230  
     110A      2.138145   111A      2.166429   112A      2.202953  
     113A      2.237249   114A      2.284544   115A      2.328044  
     116A      2.373493   117A      2.391964   118A      2.422939  
     119A      2.448966   120A      2.479714   121A      2.595235  
     122A      2.656492   123A      2.671841   124A      2.731843  
     125A      2.796717   126A      2.820009  

    Final Occupation by Irrep:
              A 
    DOCC [    28 ]

  @DF-RKS Final Energy:  -274.61963079986123

   => Energetics <=

    Nuclear Repulsion Energy =            330.3007073107152110
    One-Electron Energy =               -1023.0387312752252456
    Two-Electron Energy =                 450.7156412795080769
    DFT Exchange-Correlation Energy =     -32.5972481148592266
    Empirical Dispersion Energy =           0.0000000000000000
    VV10 Nonlocal Energy =                  0.0000000000000000
    Total Energy =                       -274.6196307998611701

Computation Completed

  //>>>>>>>>>>>>>>>>>>>>>>>>>>>>>>>>>>>//
  //                PBE0               //
  //<<<<<<<<<<<<<<<<<<<<<<<<<<<<<<<<<<<//

   => Loading Basis Set <=

    Name: DEF2-QZVP
    Role: ORBITAL
    Keyword: BASIS
    atoms 1-7  entry C          line   194 file /usr/share/psi4/basis/def2-qzvp.gbs 
    atoms 8-21 entry H          line    15 file /usr/share/psi4/basis/def2-qzvp.gbs 


         ---------------------------------------------------------
                                   SCF
               by Justin Turney, Rob Parrish, Andy Simmonett
                          and Daniel G. A. Smith
                              RKS Reference
                        4 Threads,   3814 MiB Core
         ---------------------------------------------------------

  ==> Geometry <==

    Molecular point group: c1
    Full point group: C1

    Geometry (in Angstrom), charge = 0, multiplicity = 1:

       Center              X                  Y                   Z               Mass       
    ------------   -----------------  -----------------  -----------------  -----------------
         C           -0.972211010586    -0.032717814511    -0.331739420902    12.000000000000
         C           -0.323057599086     1.305176335589     0.054946501598    12.000000000000
         C           -0.279935813686    -1.170354965311     0.408402074898    12.000000000000
         C            1.170749162414     1.173553322889     0.378059612398    12.000000000000
         C            1.186524378014    -1.308014134711    -0.020210212702    12.000000000000
         C            1.800920219714     0.040362005389    -0.417461603402    12.000000000000
         C           -2.471779873986    -0.010550696311    -0.090839237402    12.000000000000
         H           -0.808784464286    -0.195023687211    -1.405629533602     1.007825032230
         H           -0.849521209586     1.719932893289     0.922169065798     1.007825032230
         H           -0.469545406486     2.021837380389    -0.759922110402     1.007825032230
         H           -0.811372840886    -2.112780438511     0.244763955998     1.007825032230
         H           -0.342858698786    -0.971223016811     1.485430830698     1.007825032230
         H            1.304395214014     0.970210756289     1.446548447398     1.007825032230
         H            1.684038739514     2.119180804789     0.183993157098     1.007825032230
         H            1.263662423014    -2.005093208011    -0.860218448202     1.007825032230
         H            1.763297391414    -1.751636147011     0.797190846898     1.007825032230
         H            1.640745470514     0.225106064489    -1.485592681502     1.007825032230
         H            2.884428391214     0.018300110289    -0.273017167902     1.007825032230
         H           -2.690035991486     0.090333779389     0.977260369698     1.007825032230
         H           -2.944858967686     0.830783941089    -0.605267976702     1.007825032230
         H           -2.947742071786    -0.929615078011    -0.443356889702     1.007825032230

  Running in c1 symmetry.

  Rotational constants: A =      0.13921  B =      0.07423  C =      0.05482 [cm^-1]
  Rotational constants: A =   4173.37434  B =   2225.48720  C =   1643.38170 [MHz]
  Nuclear repulsion =  330.300707310715211

  Charge       = 0
  Multiplicity = 1
  Electrons    = 56
  Nalpha       = 28
  Nbeta        = 28

  ==> Algorithm <==

  SCF Algorithm Type is DF.
  DIIS enabled.
  MOM disabled.
  Fractional occupation disabled.
  Guess Type is SAD.
  Energy threshold   = 1.00e-06
  Density threshold  = 1.00e-06
  Integral threshold = 0.00e+00

  ==> Primary Basis <==

  Basis Set: DEF2-QZVP
    Blend: DEF2-QZVP
    Number of shells: 259
    Number of basis function: 819
    Number of Cartesian functions: 994
    Spherical Harmonics?: true
    Max angular momentum: 4

  ==> DFT Potential <==

   => Composite Functional: PBE0 <= 

    PBE0 Hyb-GGA Exchange-Correlation Functional

    C. Adamo and V. Barone, J. Chem. Phys. 110, 6158 (1999)
    M. Ernzerhof and G. E. Scuseria, J. Chem. Phys. 110, 5029 (1999)

    Deriv               =              1
    GGA                 =           TRUE
    Meta                =          FALSE

    Exchange Hybrid     =           TRUE
    MP2 Hybrid          =          FALSE

   => Exchange Functionals <=

    0.7500   Perdew, Burke & Ernzerhof

   => Exact (HF) Exchange <=

    0.2500               HF 

   => Correlation Functionals <=

    1.0000   Perdew, Burke & Ernzerhof

   => Molecular Quadrature <=

    Radial Scheme          =       TREUTLER
    Pruning Scheme         =           FLAT
    Nuclear Scheme         =       TREUTLER

    BS radius alpha        =              1
    Pruning alpha          =              1
    Radial Points          =             75
    Spherical Points       =            302
    Total Points           =         474031
    Total Blocks           =           3476
    Max Points             =            256
    Max Functions          =            718

   => Loading Basis Set <=

    Name: (DEF2-QZVP AUX)
    Role: JKFIT
    Keyword: DF_BASIS_SCF
    atoms 1-7  entry C          line   203 file /usr/share/psi4/basis/def2-qzvp-jkfit.gbs 
    atoms 8-21 entry H          line    23 file /usr/share/psi4/basis/def2-qzvp-jkfit.gbs 


  Computing basis projection from DEF2-SV(P) to DEF2-QZVP

  ==> Pre-Iterations <==

   -------------------------------------------------------
    Irrep   Nso     Nmo     Nalpha   Nbeta   Ndocc  Nsocc
   -------------------------------------------------------
     A        819     819       0       0       0       0
   -------------------------------------------------------
    Total     819     819      28      28      28       0
   -------------------------------------------------------

  ==> Integral Setup <==

  ==> DiskDFJK: Density-Fitted J/K Matrices <==

    J tasked:                  Yes
    K tasked:                  Yes
    wK tasked:                  No
    OpenMP threads:              4
    Integrals threads:           4
    Memory [MiB]:             1820
    Algorithm:                Disk
    Integral Cache:           NONE
    Schwarz Cutoff:          1E-12
    Fitting Condition:       1E-10

   => Auxiliary Basis Set <=

  Basis Set: (DEF2-QZVP AUX)
    Blend: DEF2-QZVP-JKFIT
    Number of shells: 259
    Number of basis function: 777
    Number of Cartesian functions: 903
    Spherical Harmonics?: true
    Max angular momentum: 4

  Cached 16.7% of DFT collocation blocks in 1.067 [GiB].

  Minimum eigenvalue in the overlap matrix is 9.2051665210E-06.
  Using Symmetric Orthogonalization.

  SCF Guess: Orbitals guess was supplied from a previous computation.

  ==> Iterations <==

                           Total Energy        Delta E     RMS |[F,P]|

   @DF-RKS iter   0:  -274.73380280562367   -2.74734e+02   3.69200e-03 
   @DF-RKS iter   1:  -274.95612741022995   -2.22325e-01   5.62476e-05 DIIS
   @DF-RKS iter   2:  -274.95611941987187    7.99036e-06   5.34306e-05 DIIS
   @DF-RKS iter   3:  -274.95704975598119   -9.30336e-04   1.21036e-05 DIIS
   @DF-RKS iter   4:  -274.95709349472293   -4.37387e-05   3.61611e-06 DIIS
   @DF-RKS iter   5:  -274.95709741723743   -3.92251e-06   5.40347e-07 DIIS
   @DF-RKS iter   6:  -274.95709750338369   -8.61463e-08   9.31292e-08 DIIS
  Energy and wave function converged.


  ==> Post-Iterations <==

    Orbital Energies [Eh]
    ---------------------

    Doubly Occupied:                                                      

       1A    -10.219285     2A    -10.211922     3A    -10.211527  
       4A    -10.211252     5A    -10.210550     6A    -10.209937  
       7A    -10.205115     8A     -0.859351     9A     -0.783542  
      10A     -0.756827    11A     -0.691657    12A     -0.627573  
      13A     -0.608266    14A     -0.536697    15A     -0.500668  
      16A     -0.479766    17A     -0.453380    18A     -0.425636  
      19A     -0.417480    20A     -0.390919    21A     -0.381390  
      22A     -0.372560    23A     -0.362810    24A     -0.352470  
      25A     -0.348500    26A     -0.308058    27A     -0.302323  
      28A     -0.300263  

    Virtual:                                                              

      29A      0.028313    30A      0.038257    31A      0.043753  
      32A      0.052082    33A      0.073467    34A      0.075628  
      35A      0.083006    36A      0.086416    37A      0.092116  
      38A      0.106631    39A      0.116869    40A      0.117460  
      41A      0.123359    42A      0.133795    43A      0.144796  
      44A      0.150210    45A      0.157835    46A      0.175015  
      47A      0.178234    48A      0.187745    49A      0.190892  
      50A      0.202926    51A      0.213090    52A      0.221650  
      53A      0.224484    54A      0.234476    55A      0.248044  
      56A      0.256880    57A      0.263307    58A      0.271357  
      59A      0.277451    60A      0.289607    61A      0.293374  
      62A      0.296750    63A      0.303985    64A      0.312322  
      65A      0.319835    66A      0.323420    67A      0.328673  
      68A      0.338004    69A      0.341271    70A      0.344642  
      71A      0.352862    72A      0.355149    73A      0.360086  
      74A      0.370689    75A      0.372853    76A      0.376942  
      77A      0.380855    78A      0.384559    79A      0.392551  
      80A      0.410810    81A      0.415065    82A      0.427493  
      83A      0.461756    84A      0.486175    85A      0.499134  
      86A      0.512282    87A      0.534024    88A      0.544294  
      89A      0.546554    90A      0.553821    91A      0.569294  
      92A      0.574483    93A      0.578779    94A      0.589573  
      95A      0.600211    96A      0.604753    97A      0.615041  
      98A      0.623480    99A      0.628392   100A      0.640465  
     101A      0.644357   102A      0.651515   103A      0.662139  
     104A      0.668979   105A      0.679626   106A      0.696032  
     107A      0.707639   108A      0.714586   109A      0.750116  
     110A      0.772243   111A      0.785896   112A      0.786266  
     113A      0.795024   114A      0.807312   115A      0.810722  
     116A      0.812798   117A      0.820318   118A      0.830826  
     119A      0.832272   120A      0.839838   121A      0.845836  
     122A      0.848309   123A      0.853914   124A      0.861218  
     125A      0.864046   126A      0.878212   127A      0.883420  
     128A      0.887303   129A      0.889793   130A      0.893940  
     131A      0.902019   132A      0.910123   133A      0.922605  
     134A      0.927718   135A      0.937203   136A      0.953484  
     137A      0.960602   138A      0.964798   139A      0.981486  
     140A      0.984857   141A      1.002629   142A      1.016835  
     143A      1.024567   144A      1.039034   145A      1.044246  
     146A      1.059895   147A      1.064218   148A      1.073386  
     149A      1.080246   150A      1.090596   151A      1.104295  
     152A      1.117170   153A      1.123137   154A      1.137910  
     155A      1.156858   156A      1.160895   157A      1.178514  
     158A      1.184409   159A      1.197542   160A      1.206025  
     161A      1.217627   162A      1.227110   163A      1.235980  
     164A      1.242052   165A      1.260767   166A      1.273622  
     167A      1.277973   168A      1.285459   169A      1.290997  
     170A      1.316993   171A      1.328974   172A      1.339150  
     173A      1.345125   174A      1.364552   175A      1.381845  
     176A      1.391147   177A      1.418949   178A      1.434237  
     179A      1.444171   180A      1.448724   181A      1.467596  
     182A      1.471869   183A      1.477924   184A      1.497948  
     185A      1.501422   186A      1.519571   187A      1.521756  
     188A      1.525938   189A      1.539801   190A      1.560018  
     191A      1.577983   192A      1.584142   193A      1.604003  
     194A      1.613442   195A      1.624206   196A      1.648319  
     197A      1.657584   198A      1.677763   199A      1.706065  
     200A      1.729043   201A      1.744389   202A      1.748440  
     203A      1.762282   204A      1.767269   205A      1.787980  
     206A      1.804904   207A      1.825557   208A      1.844433  
     209A      1.850259   210A      1.871472   211A      1.890665  
     212A      1.908297   213A      1.931474   214A      1.943135  
     215A      1.944686   216A      1.957301   217A      1.986713  
     218A      1.996711   219A      2.001704   220A      2.009804  
     221A      2.015073   222A      2.031316   223A      2.038703  
     224A      2.046623   225A      2.055107   226A      2.059282  
     227A      2.076514   228A      2.076979   229A      2.090280  
     230A      2.101084   231A      2.104222   232A      2.118229  
     233A      2.131760   234A      2.138235   235A      2.145847  
     236A      2.148427   237A      2.161468   238A      2.164665  
     239A      2.177091   240A      2.188309   241A      2.198904  
     242A      2.200380   243A      2.212868   244A      2.216461  
     245A      2.227613   246A      2.235628   247A      2.239529  
     248A      2.244659   249A      2.254624   250A      2.261092  
     251A      2.268302   252A      2.275808   253A      2.289951  
     254A      2.310764   255A      2.316332   256A      2.325039  
     257A      2.328313   258A      2.344204   259A      2.358171  
     260A      2.373202   261A      2.381301   262A      2.385891  
     263A      2.403200   264A      2.414732   265A      2.428349  
     266A      2.429011   267A      2.442486   268A      2.467837  
     269A      2.476047   270A      2.485747   271A      2.500629  
     272A      2.510434   273A      2.515739   274A      2.526991  
     275A      2.541384   276A      2.548736   277A      2.553152  
     278A      2.570533   279A      2.576523   280A      2.591163  
     281A      2.596834   282A      2.610092   283A      2.616379  
     284A      2.626825   285A      2.636518   286A      2.644583  
     287A      2.662643   288A      2.672305   289A      2.681755  
     290A      2.689917   291A      2.704079   292A      2.715678  
     293A      2.726237   294A      2.741246   295A      2.750157  
     296A      2.754023   297A      2.771908   298A      2.776047  
     299A      2.794483   300A      2.801814   301A      2.811812  
     302A      2.827605   303A      2.835438   304A      2.849858  
     305A      2.867406   306A      2.868279   307A      2.882736  
     308A      2.895743   309A      2.908168   310A      2.917204  
     311A      2.918618   312A      2.926584   313A      2.936644  
     314A      2.956063   315A      2.961402   316A      2.964508  
     317A      2.975132   318A      2.987580   319A      2.991616  
     320A      3.000743   321A      3.015768   322A      3.020369  
     323A      3.026417   324A      3.033960   325A      3.042614  
     326A      3.069279   327A      3.075005   328A      3.082982  
     329A      3.099436   330A      3.109552   331A      3.132460  
     332A      3.146729   333A      3.153800   334A      3.161022  
     335A      3.176063   336A      3.183633   337A      3.188051  
     338A      3.204166   339A      3.205564   340A      3.226097  
     341A      3.240880   342A      3.250863   343A      3.267673  
     344A      3.282269   345A      3.283538   346A      3.291882  
     347A      3.315646   348A      3.321750   349A      3.347733  
     350A      3.360776   351A      3.374467   352A      3.389890  
     353A      3.399655   354A      3.415963   355A      3.421331  
     356A      3.428838   357A      3.449764   358A      3.455927  
     359A      3.486108   360A      3.496468   361A      3.515272  
     362A      3.518388   363A      3.526562   364A      3.543999  
     365A      3.565189   366A      3.593457   367A      3.598509  
     368A      3.605643   369A      3.617508   370A      3.648769  
     371A      3.657408   372A      3.664810   373A      3.672888  
     374A      3.685016   375A      3.699916   376A      3.710830  
     377A      3.723533   378A      3.733927   379A      3.743499  
     380A      3.758169   381A      3.761219   382A      3.791250  
     383A      3.810503   384A      3.818604   385A      3.828936  
     386A      3.844893   387A      3.863459   388A      3.875911  
     389A      3.879225   390A      3.922048   391A      3.936877  
     392A      3.940572   393A      3.949289   394A      3.954069  
     395A      3.969356   396A      3.990592   397A      3.998859  
     398A      4.028960   399A      4.035021   400A      4.042399  
     401A      4.050233   402A      4.060184   403A      4.083593  
     404A      4.099573   405A      4.118023   406A      4.135188  
     407A      4.163937   408A      4.191202   409A      4.246230  
     410A      4.265236   411A      4.311809   412A      4.344365  
     413A      4.393243   414A      4.426278   415A      4.464919  
     416A      4.504590   417A      4.514608   418A      4.567382  
     419A      4.624505   420A      4.653981   421A      4.807658  
     422A      4.825404   423A      4.851415   424A      4.859536  
     425A      4.883752   426A      4.896351   427A      4.926550  
     428A      4.967931   429A      4.970639   430A      5.071978  
     431A      5.074767   432A      5.160294   433A      5.166690  
     434A      5.211508   435A      5.227649   436A      5.238250  
     437A      5.266831   438A      5.289350   439A      5.361219  
     440A      5.433913   441A      5.442736   442A      5.452595  
     443A      5.487103   444A      5.511384   445A      5.517265  
     446A      5.560760   447A      5.577559   448A      5.581471  
     449A      5.592522   450A      5.637972   451A      5.655574  
     452A      5.669027   453A      5.704870   454A      5.711294  
     455A      5.739654   456A      5.744684   457A      5.760694  
     458A      5.780082   459A      5.791616   460A      5.798045  
     461A      5.822374   462A      5.847518   463A      5.856733  
     464A      5.857600   465A      5.871971   466A      5.884444  
     467A      5.904950   468A      5.909360   469A      5.925094  
     470A      5.934252   471A      5.943618   472A      5.954336  
     473A      5.964378   474A      5.971790   475A      5.980716  
     476A      5.986689   477A      5.998110   478A      6.006842  
     479A      6.020710   480A      6.042651   481A      6.058971  
     482A      6.070065   483A      6.080363   484A      6.096357  
     485A      6.098776   486A      6.102777   487A      6.109478  
     488A      6.115351   489A      6.122357   490A      6.129792  
     491A      6.136669   492A      6.143191   493A      6.158567  
     494A      6.168072   495A      6.177209   496A      6.188627  
     497A      6.210986   498A      6.220872   499A      6.233887  
     500A      6.241848   501A      6.244475   502A      6.253709  
     503A      6.267942   504A      6.281662   505A      6.289415  
     506A      6.302976   507A      6.307048   508A      6.317921  
     509A      6.322555   510A      6.339241   511A      6.347577  
     512A      6.354911   513A      6.364378   514A      6.374602  
     515A      6.394159   516A      6.400119   517A      6.409833  
     518A      6.413025   519A      6.422060   520A      6.427483  
     521A      6.432283   522A      6.447155   523A      6.457865  
     524A      6.476554   525A      6.492323   526A      6.513856  
     527A      6.522759   528A      6.529133   529A      6.539706  
     530A      6.547442   531A      6.560607   532A      6.583155  
     533A      6.587572   534A      6.606598   535A      6.612852  
     536A      6.623017   537A      6.635681   538A      6.649985  
     539A      6.659019   540A      6.671982   541A      6.676617  
     542A      6.682211   543A      6.700842   544A      6.710438  
     545A      6.728196   546A      6.740845   547A      6.763383  
     548A      6.778346   549A      6.781545   550A      6.801195  
     551A      6.809779   552A      6.816651   553A      6.833489  
     554A      6.850459   555A      6.863270   556A      6.879354  
     557A      6.892800   558A      6.900390   559A      6.906310  
     560A      6.920654   561A      6.948315   562A      6.961140  
     563A      6.969987   564A      6.978894   565A      6.990867  
     566A      7.003260   567A      7.015359   568A      7.026017  
     569A      7.045635   570A      7.068890   571A      7.078459  
     572A      7.089567   573A      7.110592   574A      7.123186  
     575A      7.135620   576A      7.154486   577A      7.171754  
     578A      7.187620   579A      7.216277   580A      7.227101  
     581A      7.239943   582A      7.254272   583A      7.279388  
     584A      7.303466   585A      7.314120   586A      7.326241  
     587A      7.358363   588A      7.372429   589A      7.385626  
     590A      7.400879   591A      7.427458   592A      7.434320  
     593A      7.442985   594A      7.451453   595A      7.462223  
     596A      7.488057   597A      7.495737   598A      7.512813  
     599A      7.517408   600A      7.527621   601A      7.539200  
     602A      7.567619   603A      7.579518   604A      7.592733  
     605A      7.602290   606A      7.603542   607A      7.610892  
     608A      7.639025   609A      7.646587   610A      7.653225  
     611A      7.661631   612A      7.679838   613A      7.692366  
     614A      7.703774   615A      7.715043   616A      7.725497  
     617A      7.730274   618A      7.738021   619A      7.748154  
     620A      7.759368   621A      7.769006   622A      7.780484  
     623A      7.787955   624A      7.815548   625A      7.828663  
     626A      7.834966   627A      7.843288   628A      7.856949  
     629A      7.858108   630A      7.876844   631A      7.892818  
     632A      7.918791   633A      7.920291   634A      7.927718  
     635A      7.952774   636A      7.960749   637A      7.969531  
     638A      7.975558   639A      7.983234   640A      7.988781  
     641A      8.010541   642A      8.018705   643A      8.026907  
     644A      8.034888   645A      8.043981   646A      8.045371  
     647A      8.049837   648A      8.070938   649A      8.077976  
     650A      8.101722   651A      8.113545   652A      8.119067  
     653A      8.134723   654A      8.144219   655A      8.161028  
     656A      8.172761   657A      8.185931   658A      8.196980  
     659A      8.230979   660A      8.242460   661A      8.246197  
     662A      8.265184   663A      8.278585   664A      8.308335  
     665A      8.314533   666A      8.322339   667A      8.338838  
     668A      8.351706   669A      8.366372   670A      8.379821  
     671A      8.393478   672A      8.404808   673A      8.442353  
     674A      8.444933   675A      8.453078   676A      8.475092  
     677A      8.477233   678A      8.485395   679A      8.496194  
     680A      8.516799   681A      8.534083   682A      8.541140  
     683A      8.567773   684A      8.568999   685A      8.575342  
     686A      8.585808   687A      8.594417   688A      8.598438  
     689A      8.603853   690A      8.612430   691A      8.637497  
     692A      8.642248   693A      8.652184   694A      8.659438  
     695A      8.668176   696A      8.680073   697A      8.688745  
     698A      8.697388   699A      8.716498   700A      8.728663  
     701A      8.747919   702A      8.754325   703A      8.761147  
     704A      8.779642   705A      8.791950   706A      8.796248  
     707A      8.821802   708A      8.830569   709A      8.848430  
     710A      8.858745   711A      8.871727   712A      8.888011  
     713A      8.914384   714A      8.928798   715A      8.941828  
     716A      8.959714   717A      8.966869   718A      8.969342  
     719A      9.002056   720A      9.006039   721A      9.023890  
     722A      9.032569   723A      9.051423   724A      9.062426  
     725A      9.084069   726A      9.094741   727A      9.104743  
     728A      9.123693   729A      9.141014   730A      9.159032  
     731A      9.174773   732A      9.201954   733A      9.233312  
     734A      9.238672   735A      9.251026   736A      9.281368  
     737A      9.286527   738A      9.318371   739A      9.345073  
     740A      9.353380   741A      9.360790   742A      9.441793  
     743A      9.492308   744A      9.561400   745A      9.599493  
     746A      9.602054   747A      9.609978   748A      9.655275  
     749A      9.732437   750A      9.764235   751A      9.784935  
     752A      9.790462   753A      9.808232   754A      9.831313  
     755A      9.862204   756A      9.879144   757A      9.900937  
     758A      9.928348   759A      9.953164   760A      9.964036  
     761A      9.978092   762A      9.985269   763A      9.993159  
     764A     10.004140   765A     10.059141   766A     10.086821  
     767A     10.093491   768A     10.122162   769A     10.135939  
     770A     10.157060   771A     10.163249   772A     10.188835  
     773A     10.193531   774A     10.208149   775A     10.225707  
     776A     10.238639   777A     10.251644   778A     10.280995  
     779A     10.287568   780A     10.304697   781A     10.328418  
     782A     10.351144   783A     10.361954   784A     10.454731  
     785A     10.479263   786A     10.547508   787A     10.557473  
     788A     10.603326   789A     10.639199   790A     10.654943  
     791A     10.691413   792A     12.171818   793A     12.287658  
     794A     12.423050   795A     12.468097   796A     12.496326  
     797A     12.510241   798A     12.632337   799A     13.052546  
     800A     13.160856   801A     13.190182   802A     13.251210  
     803A     13.284472   804A     13.343364   805A     13.355743  
     806A     29.141075   807A     29.166184   808A     29.180858  
     809A     29.193112   810A     29.252112   811A     29.268623  
     812A     29.306684   813A    148.380318   814A    148.412744  
     815A    148.423906   816A    148.463092   817A    148.505155  
     818A    148.532308   819A    148.582708  

    Final Occupation by Irrep:
              A 
    DOCC [    28 ]

  @DF-RKS Final Energy:  -274.95709750338369

   => Energetics <=

    Nuclear Repulsion Energy =            330.3007073107152110
    One-Electron Energy =               -1023.7141077453413800
    Two-Electron Energy =                 451.1100922262456834
    DFT Exchange-Correlation Energy =     -32.6537892950031647
    Empirical Dispersion Energy =           0.0000000000000000
    VV10 Nonlocal Energy =                  0.0000000000000000
    Total Energy =                       -274.9570975033836362

Computation Completed


Properties will be evaluated at   0.000000,   0.000000,   0.000000 [a0]

Properties computed using the SCF density matrix

  Nuclear Dipole Moment: [e a0]
     X:    -1.2414      Y:     0.0284      Z:     0.2103

  Electronic Dipole Moment: [e a0]
     X:     1.2813      Y:    -0.0311      Z:    -0.2430

  Dipole Moment: [e a0]
     X:     0.0400      Y:    -0.0027      Z:    -0.0327     Total:     0.0517

  Dipole Moment: [D]
     X:     0.1016      Y:    -0.0069      Z:    -0.0830     Total:     0.1314


*** tstop() called on lenovo at Tue Jan 18 21:52:23 2022
Module time:
	user time   =     486.96 seconds =       8.12 minutes
	system time =      11.67 seconds =       0.19 minutes
	total time  =        142 seconds =       2.37 minutes
Total time:
	user time   =     486.96 seconds =       8.12 minutes
	system time =      11.67 seconds =       0.19 minutes
	total time  =        142 seconds =       2.37 minutes

    Psi4 stopped on: Tuesday, 18 January 2022 09:52PM
    Psi4 wall time for execution: 0:02:22.46

*** Psi4 exiting successfully. Buy a developer a beer!
