
    -----------------------------------------------------------------------
          Psi4: An Open-Source Ab Initio Electronic Structure Package
                               Psi4 1.3.2 release

                         Git: Rev {} zzzzzzz 


    R. M. Parrish, L. A. Burns, D. G. A. Smith, A. C. Simmonett,
    A. E. DePrince III, E. G. Hohenstein, U. Bozkaya, A. Yu. Sokolov,
    R. Di Remigio, R. M. Richard, J. F. Gonthier, A. M. James,
    H. R. McAlexander, A. Kumar, M. Saitow, X. Wang, B. P. Pritchard,
    P. Verma, H. F. Schaefer III, K. Patkowski, R. A. King, E. F. Valeev,
    F. A. Evangelista, J. M. Turney, T. D. Crawford, and C. D. Sherrill,
    J. Chem. Theory Comput. 13(7) pp 3185--3197 (2017).
    (doi: 10.1021/acs.jctc.7b00174)


                         Additional Contributions by
    P. Kraus, H. Kruse, M. H. Lechner, M. C. Schieber, R. A. Shaw,
    A. Alenaizan, R. Galvelis, Z. L. Glick, S. Lehtola, and J. P. Misiewicz

    -----------------------------------------------------------------------


    Psi4 started on: Tuesday, 18 January 2022 09:59PM

    Process ID: 844759
    Host:       lenovo
    PSIDATADIR: /usr/share/psi4
    Memory:     500.0 MiB
    Threads:    4
    
  ==> Input File <==

--------------------------------------------------------------------------
# PBE0/def2-SV(P) calculation on methylcyclohexane conformer #1 

memory 4 gb

molecule {
	    C    -1.1095788642   0.0000421088  -0.5173760840
	    C    -0.2371911735   1.2538500872  -0.6256558751
	    C    -0.2373065295  -1.2538472571  -0.6256133330
	    C     0.9232150254   1.2569141188   0.3629919555
	    C     0.9230786172  -1.2569833692   0.3630567435
	    C     1.7717397798  -0.0000842569   0.2209982710
	    C    -1.9692772405   0.0001028398   0.7417473964
	    H    -1.7957314975   0.0000606184  -1.3728857462
	    H    -0.8538328424   2.1487527424  -0.4904864530
	    H     0.1711017413   1.3094516562  -1.6424906919
	    H     0.1710005695  -1.3095119892  -1.6424391841
	    H    -0.8540315594  -2.1486900871  -0.4904311434
	    H     0.5410089072   1.3223877590   1.3883671425
	    H     1.5377490490   2.1493641079   0.2101511831
	    H     1.5375182250  -2.1495093449   0.2102817571
	    H     0.5408436961  -1.3223517185   1.3884288345
	    H     2.2502712986  -0.0001344288  -0.7670543102
	    H     2.5806050116  -0.0001088940   0.9580214078
	    H    -1.3702856024  -0.0000265841   1.6551935732
	    H    -2.6130476994   0.8833324610   0.7731000135
	    H    -2.6132983885  -0.8829480869   0.7730149087
}

set basis def2-SV(P)
energy('pbe0')
--------------------------------------------------------------------------

  Memory set to   3.725 GiB by Python driver.

*** tstart() called on lenovo
*** at Tue Jan 18 21:59:35 2022

   => Loading Basis Set <=

    Name: DEF2-SV(P)
    Role: ORBITAL
    Keyword: BASIS
    atoms 1-7  entry C          line    88 file /usr/share/psi4/basis/def2-sv_p_.gbs 
    atoms 8-21 entry H          line    15 file /usr/share/psi4/basis/def2-sv_p_.gbs 


         ---------------------------------------------------------
                                   SCF
               by Justin Turney, Rob Parrish, Andy Simmonett
                          and Daniel G. A. Smith
                              RKS Reference
                        4 Threads,   3814 MiB Core
         ---------------------------------------------------------

  ==> Geometry <==

    Molecular point group: c1
    Full point group: C1

    Geometry (in Angstrom), charge = 0, multiplicity = 1:

       Center              X                  Y                   Z               Mass       
    ------------   -----------------  -----------------  -----------------  -----------------
         C           -1.109578864201     0.000042108780    -0.517376083992    12.000000000000
         C           -0.237191173501     1.253850087180    -0.625655875092    12.000000000000
         C           -0.237306529501    -1.253847257120    -0.625613332992    12.000000000000
         C            0.923215025399     1.256914118780     0.362991955508    12.000000000000
         C            0.923078617199    -1.256983369220     0.363056743508    12.000000000000
         C            1.771739779799    -0.000084256920     0.220998271008    12.000000000000
         C           -1.969277240501     0.000102839780     0.741747396408    12.000000000000
         H           -1.795731497501     0.000060618380    -1.372885746192     1.007825032230
         H           -0.853832842401     2.148752742380    -0.490486452992     1.007825032230
         H            0.171101741299     1.309451656180    -1.642490691892     1.007825032230
         H            0.171000569499    -1.309511989220    -1.642439184092     1.007825032230
         H           -0.854031559401    -2.148690087120    -0.490431143392     1.007825032230
         H            0.541008907199     1.322387758980     1.388367142508     1.007825032230
         H            1.537749048999     2.149364107880     0.210151183108     1.007825032230
         H            1.537518224999    -2.149509344920     0.210281757108     1.007825032230
         H            0.540843696099    -1.322351718520     1.388428834508     1.007825032230
         H            2.250271298599    -0.000134428820    -0.767054310192     1.007825032230
         H            2.580605011599    -0.000108894020     0.958021407808     1.007825032230
         H           -1.370285602401    -0.000026584120     1.655193573208     1.007825032230
         H           -2.613047699401     0.883332460980     0.773100013508     1.007825032230
         H           -2.613298388501    -0.882948086920     0.773014908708     1.007825032230

  Running in c1 symmetry.

  Rotational constants: A =      0.11801  B =      0.08487  C =      0.06448 [cm^-1]
  Rotational constants: A =   3537.86119  B =   2544.37041  C =   1933.20741 [MHz]
  Nuclear repulsion =  333.886610125007905

  Charge       = 0
  Multiplicity = 1
  Electrons    = 56
  Nalpha       = 28
  Nbeta        = 28

  ==> Algorithm <==

  SCF Algorithm Type is DF.
  DIIS enabled.
  MOM disabled.
  Fractional occupation disabled.
  Guess Type is SAD.
  Energy threshold   = 1.00e-06
  Density threshold  = 1.00e-06
  Integral threshold = 0.00e+00

  ==> Primary Basis <==

  Basis Set: DEF2-SV(P)
    Blend: DEF2-SV(P)
    Number of shells: 70
    Number of basis function: 126
    Number of Cartesian functions: 133
    Spherical Harmonics?: true
    Max angular momentum: 2

  ==> DFT Potential <==

   => Composite Functional: PBE0 <= 

    PBE0 Hyb-GGA Exchange-Correlation Functional

    C. Adamo and V. Barone, J. Chem. Phys. 110, 6158 (1999)
    M. Ernzerhof and G. E. Scuseria, J. Chem. Phys. 110, 5029 (1999)

    Deriv               =              1
    GGA                 =           TRUE
    Meta                =          FALSE

    Exchange Hybrid     =           TRUE
    MP2 Hybrid          =          FALSE

   => Exchange Functionals <=

    0.7500   Perdew, Burke & Ernzerhof

   => Exact (HF) Exchange <=

    0.2500               HF 

   => Correlation Functionals <=

    1.0000   Perdew, Burke & Ernzerhof

   => Molecular Quadrature <=

    Radial Scheme          =       TREUTLER
    Pruning Scheme         =           FLAT
    Nuclear Scheme         =       TREUTLER

    BS radius alpha        =              1
    Pruning alpha          =              1
    Radial Points          =             75
    Spherical Points       =            302
    Total Points           =         469460
    Total Blocks           =           3443
    Max Points             =            256
    Max Functions          =            125

   => Loading Basis Set <=

    Name: (DEF2-SV(P) AUX)
    Role: JKFIT
    Keyword: DF_BASIS_SCF
    atoms 1-7  entry C          line   203 file /usr/share/psi4/basis/def2-sv_p_-jkfit.gbs 
    atoms 8-21 entry H          line    23 file /usr/share/psi4/basis/def2-sv_p_-jkfit.gbs 

  ==> Pre-Iterations <==

   -------------------------------------------------------
    Irrep   Nso     Nmo     Nalpha   Nbeta   Ndocc  Nsocc
   -------------------------------------------------------
     A        126     126       0       0       0       0
   -------------------------------------------------------
    Total     126     126      28      28      28       0
   -------------------------------------------------------

  ==> Integral Setup <==

  DFHelper Memory: AOs need 0.100 GiB; user supplied 1.401 GiB. Using in-core AOs.

  ==> MemDFJK: Density-Fitted J/K Matrices <==

    J tasked:                   Yes
    K tasked:                   Yes
    wK tasked:                   No
    OpenMP threads:               4
    Memory [MiB]:              1434
    Algorithm:                 Core
    Schwarz Cutoff:           1E-12
    Mask sparsity (%):       0.3527
    Fitting Condition:        1E-10

   => Auxiliary Basis Set <=

  Basis Set: (DEF2-SV(P) AUX)
    Blend: DEF2-SV_P_-JKFIT
    Number of shells: 259
    Number of basis function: 777
    Number of Cartesian functions: 903
    Spherical Harmonics?: true
    Max angular momentum: 4

  Cached 100.0% of DFT collocation blocks in 1.393 [GiB].

  Minimum eigenvalue in the overlap matrix is 1.5293896382E-03.
  Using Symmetric Orthogonalization.

  SCF Guess: Superposition of Atomic Densities via on-the-fly atomic UHF.

  ==> Iterations <==

                           Total Energy        Delta E     RMS |[F,P]|

   @DF-RKS iter SAD:  -274.33825370474403   -2.74338e+02   0.00000e+00 
   @DF-RKS iter   1:  -274.03301380286848    3.05240e-01   8.19962e-03 DIIS
   @DF-RKS iter   2:  -273.68051664977310    3.52497e-01   1.04836e-02 DIIS
   @DF-RKS iter   3:  -274.62213294302620   -9.41616e-01   8.05399e-04 DIIS
   @DF-RKS iter   4:  -274.62635670478903   -4.22376e-03   2.87026e-04 DIIS
   @DF-RKS iter   5:  -274.62693665271325   -5.79948e-04   8.88992e-05 DIIS
   @DF-RKS iter   6:  -274.62699799286531   -6.13402e-05   8.83940e-06 DIIS
   @DF-RKS iter   7:  -274.62699859732993   -6.04465e-07   3.48769e-06 DIIS
   @DF-RKS iter   8:  -274.62699869476023   -9.74303e-08   7.01835e-07 DIIS
  Energy and wave function converged.


  ==> Post-Iterations <==

    Orbital Energies [Eh]
    ---------------------

    Doubly Occupied:                                                      

       1A    -10.225732     2A    -10.215877     3A    -10.215733  
       4A    -10.215677     5A    -10.215223     6A    -10.215204  
       7A    -10.208939     8A     -0.854334     9A     -0.775432  
      10A     -0.754163    11A     -0.689617    12A     -0.617988  
      13A     -0.605616    14A     -0.539785    15A     -0.499983  
      16A     -0.460730    17A     -0.458222    18A     -0.439468  
      19A     -0.413801    20A     -0.412254    21A     -0.387283  
      22A     -0.370594    23A     -0.365286    24A     -0.348269  
      25A     -0.343304    26A     -0.316891    27A     -0.303440  
      28A     -0.303326  

    Virtual:                                                              

      29A      0.059600    30A      0.080708    31A      0.100198  
      32A      0.109241    33A      0.126999    34A      0.130886  
      35A      0.145357    36A      0.151617    37A      0.155053  
      38A      0.157831    39A      0.166565    40A      0.179391  
      41A      0.200658    42A      0.205943    43A      0.225348  
      44A      0.234105    45A      0.248798    46A      0.255167  
      47A      0.268911    48A      0.295117    49A      0.296147  
      50A      0.424399    51A      0.437124    52A      0.448043  
      53A      0.459842    54A      0.474871    55A      0.477430  
      56A      0.485056    57A      0.573727    58A      0.630803  
      59A      0.636948    60A      0.644435    61A      0.658164  
      62A      0.678971    63A      0.682318    64A      0.696816  
      65A      0.698290    66A      0.701094    67A      0.711709  
      68A      0.718783    69A      0.730733    70A      0.730914  
      71A      0.743580    72A      0.744544    73A      0.745568  
      74A      0.748212    75A      0.755573    76A      0.757807  
      77A      0.767253    78A      0.784838    79A      0.791457  
      80A      0.801432    81A      0.827241    82A      0.855829  
      83A      0.890476    84A      0.925484    85A      1.009556  
      86A      1.092794    87A      1.163134    88A      1.189443  
      89A      1.208029    90A      1.315256    91A      1.326971  
      92A      1.371080    93A      1.380520    94A      1.563311  
      95A      1.611480    96A      1.699429    97A      1.728595  
      98A      1.792031    99A      1.806753   100A      1.826283  
     101A      1.910132   102A      1.936849   103A      1.955032  
     104A      1.971680   105A      1.983962   106A      2.004377  
     107A      2.091275   108A      2.112388   109A      2.113420  
     110A      2.121133   111A      2.206536   112A      2.227025  
     113A      2.255852   114A      2.295425   115A      2.317937  
     116A      2.336137   117A      2.374488   118A      2.392163  
     119A      2.449103   120A      2.555380   121A      2.652095  
     122A      2.656567   123A      2.685909   124A      2.711281  
     125A      2.722814   126A      2.772029  

    Final Occupation by Irrep:
              A 
    DOCC [    28 ]

  @DF-RKS Final Energy:  -274.62699869476023

   => Energetics <=

    Nuclear Repulsion Energy =            333.8866101250079055
    One-Electron Energy =               -1030.2023220339797263
    Two-Electron Energy =                 454.2887136021780634
    DFT Exchange-Correlation Energy =     -32.6000003879664391
    Empirical Dispersion Energy =           0.0000000000000000
    VV10 Nonlocal Energy =                  0.0000000000000000
    Total Energy =                       -274.6269986947601751

Computation Completed


Properties will be evaluated at   0.000000,   0.000000,   0.000000 [a0]

Properties computed using the SCF density matrix

  Nuclear Dipole Moment: [e a0]
     X:    -0.7220      Y:     0.0001      Z:     0.8913

  Electronic Dipole Moment: [e a0]
     X:     0.7182      Y:    -0.0001      Z:    -0.9032

  Dipole Moment: [e a0]
     X:    -0.0038      Y:    -0.0000      Z:    -0.0119     Total:     0.0125

  Dipole Moment: [D]
     X:    -0.0096      Y:    -0.0000      Z:    -0.0303     Total:     0.0318


*** tstop() called on lenovo at Tue Jan 18 21:59:43 2022
Module time:
	user time   =      21.17 seconds =       0.35 minutes
	system time =       0.55 seconds =       0.01 minutes
	total time  =          8 seconds =       0.13 minutes
Total time:
	user time   =      21.17 seconds =       0.35 minutes
	system time =       0.55 seconds =       0.01 minutes
	total time  =          8 seconds =       0.13 minutes

    Psi4 stopped on: Tuesday, 18 January 2022 09:59PM
    Psi4 wall time for execution: 0:00:07.81

*** Psi4 exiting successfully. Buy a developer a beer!
