
    -----------------------------------------------------------------------
          Psi4: An Open-Source Ab Initio Electronic Structure Package
                               Psi4 1.3.2 release

                         Git: Rev {} zzzzzzz 


    R. M. Parrish, L. A. Burns, D. G. A. Smith, A. C. Simmonett,
    A. E. DePrince III, E. G. Hohenstein, U. Bozkaya, A. Yu. Sokolov,
    R. Di Remigio, R. M. Richard, J. F. Gonthier, A. M. James,
    H. R. McAlexander, A. Kumar, M. Saitow, X. Wang, B. P. Pritchard,
    P. Verma, H. F. Schaefer III, K. Patkowski, R. A. King, E. F. Valeev,
    F. A. Evangelista, J. M. Turney, T. D. Crawford, and C. D. Sherrill,
    J. Chem. Theory Comput. 13(7) pp 3185--3197 (2017).
    (doi: 10.1021/acs.jctc.7b00174)


                         Additional Contributions by
    P. Kraus, H. Kruse, M. H. Lechner, M. C. Schieber, R. A. Shaw,
    A. Alenaizan, R. Galvelis, Z. L. Glick, S. Lehtola, and J. P. Misiewicz

    -----------------------------------------------------------------------


    Psi4 started on: Saturday, 10 July 2021 02:22PM

    Process ID: 1455732
    Host:       thinkpad
    PSIDATADIR: /usr/share/psi4
    Memory:     500.0 MiB
    Threads:    4
    
  ==> Input File <==

--------------------------------------------------------------------------
# PBE0/def2-TZVP calculation on methylcyclohexane conformer #4 

memory 4 gb

molecule {
	    C     1.0967391628  -0.0189497195  -0.5442522969
	    C     0.2248116124  -1.2773262118  -0.5815552448
	    C     0.2186666840   1.2281403889  -0.6812511722
	    C    -0.9107270848  -1.2430181465   0.4351430269
	    C    -0.9165900156   1.2691052592   0.3354739372
	    C    -1.7656183377   0.0063011319   0.2652294025
	    C     1.9861643489   0.0324766408   0.6929603546
	    H     1.7619761891  -0.0519593128  -1.4155121231
	    H     0.8470133499  -2.1651667770  -0.4268217404
	    H    -0.2084250060  -1.3732402737  -1.5849221445
	    H    -0.2150661957   1.2417167067  -1.6888811869
	    H     0.8364239134   2.1285704211  -0.5978963419
	    H    -0.5029163708  -1.2675470736   1.4523818526
	    H    -1.5267819337  -2.1416437225   0.3329272687
	    H    -1.5368131345   2.1539784780   0.1627803425
	    H    -0.5088087563   1.3758575644   1.3474077991
	    H    -2.2691485831  -0.0335678392  -0.7094746205
	    H    -2.5554707794   0.0345024101   1.0220933739
	    H     2.6286920275   0.9169412507   0.6736089759
	    H     1.4091425194   0.0683224367   1.6197482185
	    H     2.6326254302  -0.8478211176   0.7442933959
}

# It is beneficial to initialize larger-basis calculations with
# a small reasonable basis; use def2-SV(P) for this purpose
set basis_guess def2-SV(P)
set basis def2-TZVP
energy('pbe0')
--------------------------------------------------------------------------

  Memory set to   3.725 GiB by Python driver.

*** tstart() called on thinkpad
*** at Sat Jul 10 14:22:17 2021


  //>>>>>>>>>>>>>>>>>>>>>>>>>>>>>>>>>>>//
  //    Guess SCF, DEF2-SV(P) Basis    //
  //<<<<<<<<<<<<<<<<<<<<<<<<<<<<<<<<<<<//

   => Loading Basis Set <=

    Name: DEF2-SV(P)
    Role: ORBITAL
    Keyword: BASIS
    atoms 1-7  entry C          line    88 file /usr/share/psi4/basis/def2-sv_p_.gbs 
    atoms 8-21 entry H          line    15 file /usr/share/psi4/basis/def2-sv_p_.gbs 


         ---------------------------------------------------------
                           SCF Castup computation                  
         ---------------------------------------------------------
                                   SCF
               by Justin Turney, Rob Parrish, Andy Simmonett
                          and Daniel G. A. Smith
                              RKS Reference
                        4 Threads,   3814 MiB Core
         ---------------------------------------------------------

  ==> Geometry <==

    Molecular point group: c1
    Full point group: C1

    Geometry (in Angstrom), charge = 0, multiplicity = 1:

       Center              X                  Y                   Z               Mass       
    ------------   -----------------  -----------------  -----------------  -----------------
         C            1.096739162806    -0.018949719487    -0.544252296887    12.000000000000
         C            0.224811612406    -1.277326211787    -0.581555244787    12.000000000000
         C            0.218666684006     1.228140388913    -0.681251172187    12.000000000000
         C           -0.910727084794    -1.243018146487     0.435143026913    12.000000000000
         C           -0.916590015594     1.269105259213     0.335473937213    12.000000000000
         C           -1.765618337694     0.006301131913     0.265229402513    12.000000000000
         C            1.986164348906     0.032476640813     0.692960354613    12.000000000000
         H            1.761976189106    -0.051959312787    -1.415512123087     1.007825032230
         H            0.847013349906    -2.165166776987    -0.426821740387     1.007825032230
         H           -0.208425005994    -1.373240273687    -1.584922144487     1.007825032230
         H           -0.215066195694     1.241716706713    -1.688881186887     1.007825032230
         H            0.836423913406     2.128570421113    -0.597896341887     1.007825032230
         H           -0.502916370794    -1.267547073587     1.452381852613     1.007825032230
         H           -1.526781933694    -2.141643722487     0.332927268713     1.007825032230
         H           -1.536813134494     2.153978478013     0.162780342513     1.007825032230
         H           -0.508808756294     1.375857564413     1.347407799113     1.007825032230
         H           -2.269148583094    -0.033567839187    -0.709474620487     1.007825032230
         H           -2.555470779394     0.034502410113     1.022093373913     1.007825032230
         H            2.628692027506     0.916941250713     0.673608975913     1.007825032230
         H            1.409142519406     0.068322436713     1.619748218513     1.007825032230
         H            2.632625430206    -0.847821117587     0.744293395913     1.007825032230

  Running in c1 symmetry.

  Rotational constants: A =      0.11798  B =      0.08488  C =      0.06450 [cm^-1]
  Rotational constants: A =   3537.00271  B =   2544.63395  C =   1933.68807 [MHz]
  Nuclear repulsion =  333.886463115406457

  Charge       = 0
  Multiplicity = 1
  Electrons    = 56
  Nalpha       = 28
  Nbeta        = 28

  ==> Algorithm <==

  SCF Algorithm Type is DF.
  DIIS enabled.
  MOM disabled.
  Fractional occupation disabled.
  Guess Type is SAD.
  Energy threshold   = 1.00e-06
  Density threshold  = 1.00e-06
  Integral threshold = 0.00e+00

  ==> Primary Basis <==

  Basis Set: DEF2-SV(P)
    Blend: DEF2-SV(P)
    Number of shells: 70
    Number of basis function: 126
    Number of Cartesian functions: 133
    Spherical Harmonics?: true
    Max angular momentum: 2

  ==> DFT Potential <==

   => Composite Functional: PBE0 <= 

    PBE0 Hyb-GGA Exchange-Correlation Functional

    C. Adamo and V. Barone, J. Chem. Phys. 110, 6158 (1999)
    M. Ernzerhof and G. E. Scuseria, J. Chem. Phys. 110, 5029 (1999)

    Deriv               =              1
    GGA                 =           TRUE
    Meta                =          FALSE

    Exchange Hybrid     =           TRUE
    MP2 Hybrid          =          FALSE

   => Exchange Functionals <=

    0.7500   Perdew, Burke & Ernzerhof

   => Exact (HF) Exchange <=

    0.2500               HF 

   => Correlation Functionals <=

    1.0000   Perdew, Burke & Ernzerhof

   => Molecular Quadrature <=

    Radial Scheme          =       TREUTLER
    Pruning Scheme         =           FLAT
    Nuclear Scheme         =       TREUTLER

    BS radius alpha        =              1
    Pruning alpha          =              1
    Radial Points          =             75
    Spherical Points       =            302
    Total Points           =         469461
    Total Blocks           =           3444
    Max Points             =            256
    Max Functions          =            125

   => Loading Basis Set <=

    Name: (DEF2-SV(P) AUX)
    Role: JKFIT
    Keyword: DF_BASIS_SCF
    atoms 1-7  entry C          line   203 file /usr/share/psi4/basis/def2-sv_p_-jkfit.gbs 
    atoms 8-21 entry H          line    23 file /usr/share/psi4/basis/def2-sv_p_-jkfit.gbs 

  ==> Pre-Iterations <==

   -------------------------------------------------------
    Irrep   Nso     Nmo     Nalpha   Nbeta   Ndocc  Nsocc
   -------------------------------------------------------
     A        126     126       0       0       0       0
   -------------------------------------------------------
    Total     126     126      28      28      28       0
   -------------------------------------------------------

  ==> Integral Setup <==

  ==> DiskDFJK: Density-Fitted J/K Matrices <==

    J tasked:                  Yes
    K tasked:                  Yes
    wK tasked:                  No
    OpenMP threads:              4
    Integrals threads:           4
    Memory [MiB]:             1434
    Algorithm:                Core
    Integral Cache:           NONE
    Schwarz Cutoff:          1E-12
    Fitting Condition:       1E-10

   => Auxiliary Basis Set <=

  Basis Set: (DEF2-SV(P) AUX)
    Blend: DEF2-SV_P_-JKFIT
    Number of shells: 259
    Number of basis function: 777
    Number of Cartesian functions: 903
    Spherical Harmonics?: true
    Max angular momentum: 4

  Cached 100.0% of DFT collocation blocks in 1.393 [GiB].

  Minimum eigenvalue in the overlap matrix is 1.5297774713E-03.
  Using Symmetric Orthogonalization.

  SCF Guess: Superposition of Atomic Densities via on-the-fly atomic UHF.

  ==> Iterations <==

                           Total Energy        Delta E     RMS |[F,P]|

   @DF-RKS iter SAD:  -274.33779899359359   -2.74338e+02   0.00000e+00 
   @DF-RKS iter   1:  -274.03313226639511    3.04667e-01   8.19881e-03 DIIS
   @DF-RKS iter   2:  -273.68080557551451    3.52327e-01   1.04821e-02 DIIS
   @DF-RKS iter   3:  -274.62213533219159   -9.41330e-01   8.05246e-04 DIIS
   @DF-RKS iter   4:  -274.62635807214298   -4.22274e-03   2.86827e-04 DIIS
   @DF-RKS iter   5:  -274.62693715393357   -5.79082e-04   8.88844e-05 DIIS
   @DF-RKS iter   6:  -274.62699847251884   -6.13186e-05   8.83469e-06 DIIS
   @DF-RKS iter   7:  -274.62699907636187   -6.03843e-07   3.48623e-06 DIIS
   @DF-RKS iter   8:  -274.62699917371697   -9.73551e-08   7.01970e-07 DIIS
  Energy and wave function converged.


  ==> Post-Iterations <==

    Orbital Energies [Eh]
    ---------------------

    Doubly Occupied:                                                      

       1A    -10.225739     2A    -10.215894     3A    -10.215743  
       4A    -10.215690     5A    -10.215225     6A    -10.215205  
       7A    -10.208941     8A     -0.854311     9A     -0.775406  
      10A     -0.754130    11A     -0.689638    12A     -0.617982  
      13A     -0.605608    14A     -0.539781    15A     -0.499967  
      16A     -0.460733    17A     -0.458219    18A     -0.439485  
      19A     -0.413789    20A     -0.412209    21A     -0.387270  
      22A     -0.370590    23A     -0.365320    24A     -0.348264  
      25A     -0.343317    26A     -0.316917    27A     -0.303453  
      28A     -0.303288  

    Virtual:                                                              

      29A      0.059610    30A      0.080717    31A      0.100194  
      32A      0.109260    33A      0.127004    34A      0.130894  
      35A      0.145379    36A      0.151620    37A      0.155058  
      38A      0.157849    39A      0.166559    40A      0.179355  
      41A      0.200645    42A      0.205972    43A      0.225339  
      44A      0.234119    45A      0.248847    46A      0.255045  
      47A      0.268854    48A      0.295185    49A      0.296070  
      50A      0.424468    51A      0.437090    52A      0.448018  
      53A      0.459848    54A      0.474854    55A      0.477466  
      56A      0.485087    57A      0.573734    58A      0.630772  
      59A      0.636882    60A      0.644344    61A      0.658118  
      62A      0.678914    63A      0.682322    64A      0.696785  
      65A      0.698297    66A      0.701159    67A      0.711712  
      68A      0.718796    69A      0.730773    70A      0.730907  
      71A      0.743617    72A      0.744538    73A      0.745534  
      74A      0.748165    75A      0.755549    76A      0.757803  
      77A      0.767277    78A      0.784877    79A      0.791448  
      80A      0.801485    81A      0.827220    82A      0.855903  
      83A      0.890381    84A      0.925401    85A      1.009596  
      86A      1.092758    87A      1.163166    88A      1.189552  
      89A      1.208040    90A      1.315126    91A      1.327000  
      92A      1.371095    93A      1.380398    94A      1.563348  
      95A      1.611594    96A      1.699357    97A      1.728519  
      98A      1.791922    99A      1.806704   100A      1.826305  
     101A      1.910119   102A      1.936852   103A      1.955102  
     104A      1.971684   105A      1.983848   106A      2.004392  
     107A      2.091222   108A      2.112399   109A      2.113542  
     110A      2.121002   111A      2.206458   112A      2.227126  
     113A      2.255759   114A      2.295311   115A      2.317885  
     116A      2.336115   117A      2.374459   118A      2.392093  
     119A      2.449107   120A      2.555288   121A      2.652065  
     122A      2.656474   123A      2.685624   124A      2.711268  
     125A      2.722799   126A      2.771949  

    Final Occupation by Irrep:
              A 
    DOCC [    28 ]

  @DF-RKS Final Energy:  -274.62699917371697

   => Energetics <=

    Nuclear Repulsion Energy =            333.8864631154064568
    One-Electron Energy =               -1030.2022152479325996
    Two-Electron Energy =                 454.2886509494356915
    DFT Exchange-Correlation Energy =     -32.5998979906265447
    Empirical Dispersion Energy =           0.0000000000000000
    VV10 Nonlocal Energy =                  0.0000000000000000
    Total Energy =                       -274.6269991737169676

Computation Completed

  //>>>>>>>>>>>>>>>>>>>>>>>>>>>>>>>>>>>//
  //                PBE0               //
  //<<<<<<<<<<<<<<<<<<<<<<<<<<<<<<<<<<<//

   => Loading Basis Set <=

    Name: DEF2-TZVP
    Role: ORBITAL
    Keyword: BASIS
    atoms 1-7  entry C          line   123 file /usr/share/psi4/basis/def2-tzvp.gbs 
    atoms 8-21 entry H          line    15 file /usr/share/psi4/basis/def2-tzvp.gbs 


         ---------------------------------------------------------
                                   SCF
               by Justin Turney, Rob Parrish, Andy Simmonett
                          and Daniel G. A. Smith
                              RKS Reference
                        4 Threads,   3814 MiB Core
         ---------------------------------------------------------

  ==> Geometry <==

    Molecular point group: c1
    Full point group: C1

    Geometry (in Angstrom), charge = 0, multiplicity = 1:

       Center              X                  Y                   Z               Mass       
    ------------   -----------------  -----------------  -----------------  -----------------
         C            1.096739162806    -0.018949719487    -0.544252296887    12.000000000000
         C            0.224811612406    -1.277326211787    -0.581555244787    12.000000000000
         C            0.218666684006     1.228140388913    -0.681251172187    12.000000000000
         C           -0.910727084794    -1.243018146487     0.435143026913    12.000000000000
         C           -0.916590015594     1.269105259213     0.335473937213    12.000000000000
         C           -1.765618337694     0.006301131913     0.265229402513    12.000000000000
         C            1.986164348906     0.032476640813     0.692960354613    12.000000000000
         H            1.761976189106    -0.051959312787    -1.415512123087     1.007825032230
         H            0.847013349906    -2.165166776987    -0.426821740387     1.007825032230
         H           -0.208425005994    -1.373240273687    -1.584922144487     1.007825032230
         H           -0.215066195694     1.241716706713    -1.688881186887     1.007825032230
         H            0.836423913406     2.128570421113    -0.597896341887     1.007825032230
         H           -0.502916370794    -1.267547073587     1.452381852613     1.007825032230
         H           -1.526781933694    -2.141643722487     0.332927268713     1.007825032230
         H           -1.536813134494     2.153978478013     0.162780342513     1.007825032230
         H           -0.508808756294     1.375857564413     1.347407799113     1.007825032230
         H           -2.269148583094    -0.033567839187    -0.709474620487     1.007825032230
         H           -2.555470779394     0.034502410113     1.022093373913     1.007825032230
         H            2.628692027506     0.916941250713     0.673608975913     1.007825032230
         H            1.409142519406     0.068322436713     1.619748218513     1.007825032230
         H            2.632625430206    -0.847821117587     0.744293395913     1.007825032230

  Running in c1 symmetry.

  Rotational constants: A =      0.11798  B =      0.08488  C =      0.06450 [cm^-1]
  Rotational constants: A =   3537.00271  B =   2544.63395  C =   1933.68807 [MHz]
  Nuclear repulsion =  333.886463115406457

  Charge       = 0
  Multiplicity = 1
  Electrons    = 56
  Nalpha       = 28
  Nbeta        = 28

  ==> Algorithm <==

  SCF Algorithm Type is DF.
  DIIS enabled.
  MOM disabled.
  Fractional occupation disabled.
  Guess Type is SAD.
  Energy threshold   = 1.00e-06
  Density threshold  = 1.00e-06
  Integral threshold = 0.00e+00

  ==> Primary Basis <==

  Basis Set: DEF2-TZVP
    Blend: DEF2-TZVP
    Number of shells: 133
    Number of basis function: 301
    Number of Cartesian functions: 336
    Spherical Harmonics?: true
    Max angular momentum: 3

  ==> DFT Potential <==

   => Composite Functional: PBE0 <= 

    PBE0 Hyb-GGA Exchange-Correlation Functional

    C. Adamo and V. Barone, J. Chem. Phys. 110, 6158 (1999)
    M. Ernzerhof and G. E. Scuseria, J. Chem. Phys. 110, 5029 (1999)

    Deriv               =              1
    GGA                 =           TRUE
    Meta                =          FALSE

    Exchange Hybrid     =           TRUE
    MP2 Hybrid          =          FALSE

   => Exchange Functionals <=

    0.7500   Perdew, Burke & Ernzerhof

   => Exact (HF) Exchange <=

    0.2500               HF 

   => Correlation Functionals <=

    1.0000   Perdew, Burke & Ernzerhof

   => Molecular Quadrature <=

    Radial Scheme          =       TREUTLER
    Pruning Scheme         =           FLAT
    Nuclear Scheme         =       TREUTLER

    BS radius alpha        =              1
    Pruning alpha          =              1
    Radial Points          =             75
    Spherical Points       =            302
    Total Points           =         472040
    Total Blocks           =           3463
    Max Points             =            256
    Max Functions          =            292

   => Loading Basis Set <=

    Name: (DEF2-TZVP AUX)
    Role: JKFIT
    Keyword: DF_BASIS_SCF
    atoms 1-7  entry C          line   203 file /usr/share/psi4/basis/def2-tzvp-jkfit.gbs 
    atoms 8-21 entry H          line    23 file /usr/share/psi4/basis/def2-tzvp-jkfit.gbs 


  Computing basis projection from DEF2-SV(P) to DEF2-TZVP

  ==> Pre-Iterations <==

   -------------------------------------------------------
    Irrep   Nso     Nmo     Nalpha   Nbeta   Ndocc  Nsocc
   -------------------------------------------------------
     A        301     301       0       0       0       0
   -------------------------------------------------------
    Total     301     301      28      28      28       0
   -------------------------------------------------------

  ==> Integral Setup <==

  DFHelper Memory: AOs need 0.540 GiB; user supplied 0.540 GiB. Using in-core AOs.

  ==> MemDFJK: Density-Fitted J/K Matrices <==

    J tasked:                   Yes
    K tasked:                   Yes
    wK tasked:                   No
    OpenMP threads:               4
    Memory [MiB]:               552
    Algorithm:                 Core
    Schwarz Cutoff:           1E-12
    Mask sparsity (%):       1.8984
    Fitting Condition:        1E-10

   => Auxiliary Basis Set <=

  Basis Set: (DEF2-TZVP AUX)
    Blend: DEF2-TZVP-JKFIT
    Number of shells: 259
    Number of basis function: 777
    Number of Cartesian functions: 903
    Spherical Harmonics?: true
    Max angular momentum: 4

  Cached 100.0% of DFT collocation blocks in 3.012 [GiB].

  Minimum eigenvalue in the overlap matrix is 9.8617575848E-05.
  Using Symmetric Orthogonalization.

  SCF Guess: Orbitals guess was supplied from a previous computation.

  ==> Iterations <==

                           Total Energy        Delta E     RMS |[F,P]|

   @DF-RKS iter   0:  -274.78775831516367   -2.74788e+02   5.32965e-03 
   @DF-RKS iter   1:  -274.94352394369309   -1.55766e-01   1.13200e-04 DIIS
   @DF-RKS iter   2:  -274.94345692875208    6.70149e-05   1.24920e-04 DIIS
   @DF-RKS iter   3:  -274.94416440762654   -7.07479e-04   1.77263e-05 DIIS
   @DF-RKS iter   4:  -274.94417664597603   -1.22383e-05   5.70695e-06 DIIS
   @DF-RKS iter   5:  -274.94417796326604   -1.31729e-06   1.15086e-06 DIIS
   @DF-RKS iter   6:  -274.94417801609268   -5.28266e-08   2.56422e-07 DIIS
  Energy and wave function converged.


  ==> Post-Iterations <==

    Orbital Energies [Eh]
    ---------------------

    Doubly Occupied:                                                      

       1A    -10.217143     2A    -10.208648     3A    -10.208383  
       4A    -10.208269     5A    -10.207776     6A    -10.207762  
       7A    -10.202178     8A     -0.859435     9A     -0.781280  
      10A     -0.759931    11A     -0.695330    12A     -0.622459  
      13A     -0.609566    14A     -0.542110    15A     -0.498265  
      16A     -0.459009    17A     -0.458144    18A     -0.437520  
      19A     -0.411881    20A     -0.410073    21A     -0.384827  
      22A     -0.368436    23A     -0.363332    24A     -0.345898  
      25A     -0.341050    26A     -0.315070    27A     -0.301286  
      28A     -0.301114  

    Virtual:                                                              

      29A      0.038528    30A      0.059592    31A      0.073442  
      32A      0.081462    33A      0.101197    34A      0.102321  
      35A      0.107927    36A      0.119228    37A      0.122231  
      38A      0.124251    39A      0.139393    40A      0.146782  
      41A      0.168226    42A      0.170748    43A      0.173800  
      44A      0.199285    45A      0.199538    46A      0.222671  
      47A      0.223798    48A      0.230389    49A      0.240042  
      50A      0.244742    51A      0.255154    52A      0.256276  
      53A      0.275486    54A      0.279206    55A      0.298371  
      56A      0.305167    57A      0.325776    58A      0.331111  
      59A      0.372775    60A      0.404733    61A      0.405125  
      62A      0.413403    63A      0.417806    64A      0.423769  
      65A      0.434885    66A      0.435991    67A      0.443098  
      68A      0.452498    69A      0.453719    70A      0.458588  
      71A      0.462870    72A      0.473825    73A      0.474807  
      74A      0.480920    75A      0.481138    76A      0.499871  
      77A      0.500059    78A      0.507743    79A      0.514971  
      80A      0.522800    81A      0.523643    82A      0.539721  
      83A      0.591215    84A      0.613945    85A      0.632580  
      86A      0.658394    87A      0.667297    88A      0.733046  
      89A      0.744602    90A      0.765701    91A      0.766754  
      92A      0.781581    93A      0.794628    94A      0.803266  
      95A      0.818709    96A      0.852746    97A      0.854481  
      98A      0.888251    99A      0.911639   100A      0.920681  
     101A      0.935765   102A      0.952804   103A      0.969404  
     104A      1.006041   105A      1.028147   106A      1.044098  
     107A      1.048740   108A      1.061151   109A      1.117159  
     110A      1.119674   111A      1.139812   112A      1.163942  
     113A      1.175824   114A      1.188275   115A      1.188911  
     116A      1.200915   117A      1.251233   118A      1.258139  
     119A      1.262834   120A      1.277276   121A      1.297333  
     122A      1.314547   123A      1.316763   124A      1.329388  
     125A      1.435065   126A      1.437172   127A      1.493574  
     128A      1.542963   129A      1.555729   130A      1.569807  
     131A      1.583991   132A      1.593746   133A      1.608301  
     134A      1.616955   135A      1.638056   136A      1.638384  
     137A      1.652824   138A      1.658900   139A      1.673513  
     140A      1.690608   141A      1.698635   142A      1.724020  
     143A      1.752755   144A      1.768241   145A      1.783298  
     146A      1.795550   147A      1.836065   148A      1.843889  
     149A      1.889367   150A      1.889874   151A      1.906300  
     152A      1.913436   153A      1.941781   154A      1.975243  
     155A      1.993282   156A      2.016491   157A      2.017677  
     158A      2.051872   159A      2.087948   160A      2.127753  
     161A      2.134417   162A      2.139323   163A      2.168351  
     164A      2.177154   165A      2.207607   166A      2.235686  
     167A      2.253638   168A      2.263211   169A      2.305749  
     170A      2.342466   171A      2.348986   172A      2.378969  
     173A      2.427097   174A      2.440295   175A      2.444608  
     176A      2.463262   177A      2.476361   178A      2.508411  
     179A      2.523746   180A      2.533015   181A      2.539349  
     182A      2.549934   183A      2.559046   184A      2.576929  
     185A      2.604941   186A      2.621905   187A      2.626203  
     188A      2.632728   189A      2.636259   190A      2.645997  
     191A      2.667337   192A      2.676832   193A      2.678370  
     194A      2.701514   195A      2.721362   196A      2.734434  
     197A      2.754250   198A      2.775724   199A      2.790465  
     200A      2.798431   201A      2.820562   202A      2.837780  
     203A      2.859372   204A      2.862532   205A      2.871865  
     206A      2.877669   207A      2.907584   208A      2.945641  
     209A      2.963345   210A      2.976533   211A      3.020428  
     212A      3.043204   213A      3.052450   214A      3.095427  
     215A      3.101225   216A      3.140773   217A      3.148504  
     218A      3.158885   219A      3.184937   220A      3.199949  
     221A      3.225702   222A      3.236264   223A      3.257427  
     224A      3.285192   225A      3.286081   226A      3.304114  
     227A      3.317944   228A      3.333842   229A      3.357485  
     230A      3.367692   231A      3.383447   232A      3.412143  
     233A      3.425561   234A      3.428492   235A      3.442147  
     236A      3.471990   237A      3.482714   238A      3.509603  
     239A      3.510909   240A      3.521742   241A      3.535767  
     242A      3.560356   243A      3.589879   244A      3.601182  
     245A      3.603538   246A      3.610894   247A      3.624163  
     248A      3.642968   249A      3.674969   250A      3.683762  
     251A      3.694411   252A      3.766067   253A      3.789017  
     254A      3.832508   255A      3.908686   256A      3.928215  
     257A      3.947407   258A      3.990144   259A      3.995599  
     260A      4.033977   261A      4.052170   262A      4.067539  
     263A      4.082643   264A      4.087226   265A      4.110657  
     266A      4.122735   267A      4.161574   268A      4.195005  
     269A      4.200869   270A      4.238317   271A      4.274810  
     272A      4.288422   273A      4.329839   274A      4.365384  
     275A      4.392660   276A      4.430582   277A      4.450556  
     278A      4.459402   279A      4.526314   280A      4.543570  
     281A      4.558491   282A      4.635086   283A      4.651402  
     284A      4.709217   285A      4.782326   286A      4.793799  
     287A      4.858358   288A      4.881636   289A      4.920725  
     290A      4.935326   291A      5.022775   292A      5.064590  
     293A      5.096652   294A      5.100942   295A     22.495344  
     296A     22.532045   297A     22.582092   298A     22.609354  
     299A     22.648089   300A     22.712345   301A     22.752754  

    Final Occupation by Irrep:
              A 
    DOCC [    28 ]

  @DF-RKS Final Energy:  -274.94417801609268

   => Energetics <=

    Nuclear Repulsion Energy =            333.8864631154064568
    One-Electron Energy =               -1030.8785622417594823
    Two-Electron Energy =                 454.7148797413701686
    DFT Exchange-Correlation Energy =     -32.6669586311098783
    Empirical Dispersion Energy =           0.0000000000000000
    VV10 Nonlocal Energy =                  0.0000000000000000
    Total Energy =                       -274.9441780160926783

Computation Completed


Properties will be evaluated at   0.000000,   0.000000,   0.000000 [a0]

Properties computed using the SCF density matrix

  Nuclear Dipole Moment: [e a0]
     X:     0.7429      Y:     0.0365      Z:     0.8735

  Electronic Dipole Moment: [e a0]
     X:    -0.7473      Y:    -0.0377      Z:    -0.9027

  Dipole Moment: [e a0]
     X:    -0.0044      Y:    -0.0012      Z:    -0.0292     Total:     0.0296

  Dipole Moment: [D]
     X:    -0.0113      Y:    -0.0030      Z:    -0.0743     Total:     0.0752


*** tstop() called on thinkpad at Sat Jul 10 14:22:54 2021
Module time:
	user time   =     121.85 seconds =       2.03 minutes
	system time =       2.24 seconds =       0.04 minutes
	total time  =         37 seconds =       0.62 minutes
Total time:
	user time   =     121.85 seconds =       2.03 minutes
	system time =       2.24 seconds =       0.04 minutes
	total time  =         37 seconds =       0.62 minutes

    Psi4 stopped on: Saturday, 10 July 2021 02:22PM
    Psi4 wall time for execution: 0:00:37.02

*** Psi4 exiting successfully. Buy a developer a beer!
