
    -----------------------------------------------------------------------
          Psi4: An Open-Source Ab Initio Electronic Structure Package
                               Psi4 1.3.2 release

                         Git: Rev {} zzzzzzz 


    R. M. Parrish, L. A. Burns, D. G. A. Smith, A. C. Simmonett,
    A. E. DePrince III, E. G. Hohenstein, U. Bozkaya, A. Yu. Sokolov,
    R. Di Remigio, R. M. Richard, J. F. Gonthier, A. M. James,
    H. R. McAlexander, A. Kumar, M. Saitow, X. Wang, B. P. Pritchard,
    P. Verma, H. F. Schaefer III, K. Patkowski, R. A. King, E. F. Valeev,
    F. A. Evangelista, J. M. Turney, T. D. Crawford, and C. D. Sherrill,
    J. Chem. Theory Comput. 13(7) pp 3185--3197 (2017).
    (doi: 10.1021/acs.jctc.7b00174)


                         Additional Contributions by
    P. Kraus, H. Kruse, M. H. Lechner, M. C. Schieber, R. A. Shaw,
    A. Alenaizan, R. Galvelis, Z. L. Glick, S. Lehtola, and J. P. Misiewicz

    -----------------------------------------------------------------------


    Psi4 started on: Tuesday, 18 January 2022 09:41PM

    Process ID: 831064
    Host:       lenovo
    PSIDATADIR: /usr/share/psi4
    Memory:     500.0 MiB
    Threads:    4
    
  ==> Input File <==

--------------------------------------------------------------------------
# PBE0/def2-SVP calculation on methylcyclohexane conformer #2 

memory 4 gb

molecule {
	    C    -0.9722110106  -0.0327178145  -0.3317394209
	    C    -0.3230575991   1.3051763356   0.0549465016
	    C    -0.2799358137  -1.1703549653   0.4084020749
	    C     1.1707491624   1.1735533229   0.3780596124
	    C     1.1865243780  -1.3080141347  -0.0202102127
	    C     1.8009202197   0.0403620054  -0.4174616034
	    C    -2.4717798740  -0.0105506963  -0.0908392374
	    H    -0.8087844643  -0.1950236872  -1.4056295336
	    H    -0.8495212096   1.7199328933   0.9221690658
	    H    -0.4695454065   2.0218373804  -0.7599221104
	    H    -0.8113728409  -2.1127804385   0.2447639560
	    H    -0.3428586988  -0.9712230168   1.4854308307
	    H     1.3043952140   0.9702107563   1.4465484474
	    H     1.6840387395   2.1191808048   0.1839931571
	    H     1.2636624230  -2.0050932080  -0.8602184482
	    H     1.7632973914  -1.7516361470   0.7971908469
	    H     1.6407454705   0.2251060645  -1.4855926815
	    H     2.8844283912   0.0183001103  -0.2730171679
	    H    -2.6900359915   0.0903337794   0.9772603697
	    H    -2.9448589677   0.8307839411  -0.6052679767
	    H    -2.9477420718  -0.9296150780  -0.4433568897
}

set basis def2-SVP
energy('pbe0')
--------------------------------------------------------------------------

  Memory set to   3.725 GiB by Python driver.

*** tstart() called on lenovo
*** at Tue Jan 18 21:41:40 2022

   => Loading Basis Set <=

    Name: DEF2-SVP
    Role: ORBITAL
    Keyword: BASIS
    atoms 1-7  entry C          line    90 file /usr/share/psi4/basis/def2-svp.gbs 
    atoms 8-21 entry H          line    15 file /usr/share/psi4/basis/def2-svp.gbs 


         ---------------------------------------------------------
                                   SCF
               by Justin Turney, Rob Parrish, Andy Simmonett
                          and Daniel G. A. Smith
                              RKS Reference
                        4 Threads,   3814 MiB Core
         ---------------------------------------------------------

  ==> Geometry <==

    Molecular point group: c1
    Full point group: C1

    Geometry (in Angstrom), charge = 0, multiplicity = 1:

       Center              X                  Y                   Z               Mass       
    ------------   -----------------  -----------------  -----------------  -----------------
         C           -0.972211010586    -0.032717814511    -0.331739420902    12.000000000000
         C           -0.323057599086     1.305176335589     0.054946501598    12.000000000000
         C           -0.279935813686    -1.170354965311     0.408402074898    12.000000000000
         C            1.170749162414     1.173553322889     0.378059612398    12.000000000000
         C            1.186524378014    -1.308014134711    -0.020210212702    12.000000000000
         C            1.800920219714     0.040362005389    -0.417461603402    12.000000000000
         C           -2.471779873986    -0.010550696311    -0.090839237402    12.000000000000
         H           -0.808784464286    -0.195023687211    -1.405629533602     1.007825032230
         H           -0.849521209586     1.719932893289     0.922169065798     1.007825032230
         H           -0.469545406486     2.021837380389    -0.759922110402     1.007825032230
         H           -0.811372840886    -2.112780438511     0.244763955998     1.007825032230
         H           -0.342858698786    -0.971223016811     1.485430830698     1.007825032230
         H            1.304395214014     0.970210756289     1.446548447398     1.007825032230
         H            1.684038739514     2.119180804789     0.183993157098     1.007825032230
         H            1.263662423014    -2.005093208011    -0.860218448202     1.007825032230
         H            1.763297391414    -1.751636147011     0.797190846898     1.007825032230
         H            1.640745470514     0.225106064489    -1.485592681502     1.007825032230
         H            2.884428391214     0.018300110289    -0.273017167902     1.007825032230
         H           -2.690035991486     0.090333779389     0.977260369698     1.007825032230
         H           -2.944858967686     0.830783941089    -0.605267976702     1.007825032230
         H           -2.947742071786    -0.929615078011    -0.443356889702     1.007825032230

  Running in c1 symmetry.

  Rotational constants: A =      0.13921  B =      0.07423  C =      0.05482 [cm^-1]
  Rotational constants: A =   4173.37434  B =   2225.48720  C =   1643.38170 [MHz]
  Nuclear repulsion =  330.300707310715211

  Charge       = 0
  Multiplicity = 1
  Electrons    = 56
  Nalpha       = 28
  Nbeta        = 28

  ==> Algorithm <==

  SCF Algorithm Type is DF.
  DIIS enabled.
  MOM disabled.
  Fractional occupation disabled.
  Guess Type is SAD.
  Energy threshold   = 1.00e-06
  Density threshold  = 1.00e-06
  Integral threshold = 0.00e+00

  ==> Primary Basis <==

  Basis Set: DEF2-SVP
    Blend: DEF2-SVP
    Number of shells: 84
    Number of basis function: 168
    Number of Cartesian functions: 175
    Spherical Harmonics?: true
    Max angular momentum: 2

  ==> DFT Potential <==

   => Composite Functional: PBE0 <= 

    PBE0 Hyb-GGA Exchange-Correlation Functional

    C. Adamo and V. Barone, J. Chem. Phys. 110, 6158 (1999)
    M. Ernzerhof and G. E. Scuseria, J. Chem. Phys. 110, 5029 (1999)

    Deriv               =              1
    GGA                 =           TRUE
    Meta                =          FALSE

    Exchange Hybrid     =           TRUE
    MP2 Hybrid          =          FALSE

   => Exchange Functionals <=

    0.7500   Perdew, Burke & Ernzerhof

   => Exact (HF) Exchange <=

    0.2500               HF 

   => Correlation Functionals <=

    1.0000   Perdew, Burke & Ernzerhof

   => Molecular Quadrature <=

    Radial Scheme          =       TREUTLER
    Pruning Scheme         =           FLAT
    Nuclear Scheme         =       TREUTLER

    BS radius alpha        =              1
    Pruning alpha          =              1
    Radial Points          =             75
    Spherical Points       =            302
    Total Points           =         469437
    Total Blocks           =           3446
    Max Points             =            256
    Max Functions          =            167

   => Loading Basis Set <=

    Name: (DEF2-SVP AUX)
    Role: JKFIT
    Keyword: DF_BASIS_SCF
    atoms 1-7  entry C          line   203 file /usr/share/psi4/basis/def2-svp-jkfit.gbs 
    atoms 8-21 entry H          line    23 file /usr/share/psi4/basis/def2-svp-jkfit.gbs 

  ==> Pre-Iterations <==

   -------------------------------------------------------
    Irrep   Nso     Nmo     Nalpha   Nbeta   Ndocc  Nsocc
   -------------------------------------------------------
     A        168     168       0       0       0       0
   -------------------------------------------------------
    Total     168     168      28      28      28       0
   -------------------------------------------------------

  ==> Integral Setup <==

  DFHelper Memory: AOs need 0.170 GiB; user supplied 1.134 GiB. Using in-core AOs.

  ==> MemDFJK: Density-Fitted J/K Matrices <==

    J tasked:                   Yes
    K tasked:                   Yes
    wK tasked:                   No
    OpenMP threads:               4
    Memory [MiB]:              1161
    Algorithm:                 Core
    Schwarz Cutoff:           1E-12
    Mask sparsity (%):       2.8982
    Fitting Condition:        1E-10

   => Auxiliary Basis Set <=

  Basis Set: (DEF2-SVP AUX)
    Blend: DEF2-SVP-JKFIT
    Number of shells: 259
    Number of basis function: 777
    Number of Cartesian functions: 903
    Spherical Harmonics?: true
    Max angular momentum: 4

  Cached 100.0% of DFT collocation blocks in 1.659 [GiB].

  Minimum eigenvalue in the overlap matrix is 6.0407486043E-04.
  Using Symmetric Orthogonalization.

  SCF Guess: Superposition of Atomic Densities via on-the-fly atomic UHF.

  ==> Iterations <==

                           Total Energy        Delta E     RMS |[F,P]|

   @DF-RKS iter SAD:  -274.32089250042571   -2.74321e+02   0.00000e+00 
   @DF-RKS iter   1:  -274.07707695297603    2.43816e-01   5.99114e-03 DIIS
   @DF-RKS iter   2:  -273.76957866479165    3.07498e-01   7.55906e-03 DIIS
   @DF-RKS iter   3:  -274.64592032908399   -8.76342e-01   6.48580e-04 DIIS
   @DF-RKS iter   4:  -274.65065417620906   -4.73385e-03   2.55094e-04 DIIS
   @DF-RKS iter   5:  -274.65151344942410   -8.59273e-04   5.55570e-05 DIIS
   @DF-RKS iter   6:  -274.65155620537161   -4.27559e-05   6.31280e-06 DIIS
   @DF-RKS iter   7:  -274.65155671404182   -5.08670e-07   2.76983e-06 DIIS
   @DF-RKS iter   8:  -274.65155681730823   -1.03266e-07   5.08100e-07 DIIS
  Energy and wave function converged.


  ==> Post-Iterations <==

    Orbital Energies [Eh]
    ---------------------

    Doubly Occupied:                                                      

       1A    -10.226227     2A    -10.220267     3A    -10.220168  
       4A    -10.220020     5A    -10.218890     6A    -10.218562  
       7A    -10.216168     8A     -0.853124     9A     -0.776518  
      10A     -0.749726    11A     -0.684523    12A     -0.621468  
      13A     -0.602371    14A     -0.531646    15A     -0.499865  
      16A     -0.479475    17A     -0.452990    18A     -0.424648  
      19A     -0.416536    20A     -0.390417    21A     -0.381952  
      22A     -0.373503    23A     -0.362986    24A     -0.352190  
      25A     -0.348023    26A     -0.308756    27A     -0.302771  
      28A     -0.300093  

    Virtual:                                                              

      29A      0.060833    30A      0.081657    31A      0.090893  
      32A      0.105050    33A      0.128205    34A      0.133676  
      35A      0.139130    36A      0.147378    37A      0.149817  
      38A      0.161154    39A      0.173465    40A      0.182622  
      41A      0.186217    42A      0.202192    43A      0.215577  
      44A      0.221737    45A      0.256516    46A      0.268103  
      47A      0.278215    48A      0.310841    49A      0.317610  
      50A      0.427489    51A      0.438404    52A      0.449335  
      53A      0.452737    54A      0.461214    55A      0.482875  
      56A      0.505526    57A      0.560435    58A      0.590631  
      59A      0.600165    60A      0.622498    61A      0.638864  
      62A      0.640335    63A      0.643181    64A      0.660680  
      65A      0.668465    66A      0.675904    67A      0.683203  
      68A      0.690562    69A      0.697629    70A      0.707281  
      71A      0.710293    72A      0.714027    73A      0.717431  
      74A      0.726370    75A      0.730101    76A      0.737237  
      77A      0.742606    78A      0.749860    79A      0.756632  
      80A      0.763153    81A      0.773532    82A      0.794263  
      83A      0.833529    84A      0.918093    85A      0.992484  
      86A      1.010033    87A      1.028509    88A      1.052140  
      89A      1.106309    90A      1.117050    91A      1.227844  
      92A      1.257366    93A      1.280412    94A      1.335610  
      95A      1.343819    96A      1.363720    97A      1.414743  
      98A      1.460040    99A      1.501681   100A      1.515665  
     101A      1.557077   102A      1.597127   103A      1.626379  
     104A      1.664687   105A      1.730228   106A      1.750754  
     107A      1.759418   108A      1.775144   109A      1.793205  
     110A      1.802025   111A      1.811449   112A      1.812840  
     113A      1.827305   114A      1.835727   115A      1.845077  
     116A      1.848319   117A      1.864811   118A      1.875090  
     119A      1.887733   120A      1.903145   121A      1.905350  
     122A      1.909694   123A      1.934962   124A      1.943022  
     125A      1.954296   126A      1.987950   127A      2.006591  
     128A      2.033231   129A      2.059958   130A      2.076820  
     131A      2.109418   132A      2.119528   133A      2.129965  
     134A      2.148929   135A      2.217589   136A      2.251209  
     137A      2.278763   138A      2.310819   139A      2.342735  
     140A      2.377912   141A      2.404002   142A      2.435103  
     143A      2.451776   144A      2.468420   145A      2.529807  
     146A      2.544260   147A      2.564631   148A      2.577728  
     149A      2.624631   150A      2.657118   151A      2.671388  
     152A      2.702661   153A      2.721342   154A      2.767453  
     155A      2.859440   156A      2.878049   157A      2.888780  
     158A      2.909772   159A      2.931215   160A      2.952916  
     161A      2.987679   162A      3.020410   163A      3.055531  
     164A      3.097989   165A      3.110066   166A      3.119719  
     167A      3.132756   168A      3.166490  

    Final Occupation by Irrep:
              A 
    DOCC [    28 ]

  @DF-RKS Final Energy:  -274.65155681730823

   => Energetics <=

    Nuclear Repulsion Energy =            330.3007073107152110
    One-Electron Energy =               -1023.1160535251983674
    Two-Electron Energy =                 450.7617951994629379
    DFT Exchange-Correlation Energy =     -32.5980058022880073
    Empirical Dispersion Energy =           0.0000000000000000
    VV10 Nonlocal Energy =                  0.0000000000000000
    Total Energy =                       -274.6515568173082329

Computation Completed


Properties will be evaluated at   0.000000,   0.000000,   0.000000 [a0]

Properties computed using the SCF density matrix

  Nuclear Dipole Moment: [e a0]
     X:    -1.2414      Y:     0.0284      Z:     0.2103

  Electronic Dipole Moment: [e a0]
     X:     1.2628      Y:    -0.0296      Z:    -0.2333

  Dipole Moment: [e a0]
     X:     0.0214      Y:    -0.0012      Z:    -0.0230     Total:     0.0315

  Dipole Moment: [D]
     X:     0.0545      Y:    -0.0030      Z:    -0.0584     Total:     0.0800


*** tstop() called on lenovo at Tue Jan 18 21:41:55 2022
Module time:
	user time   =      45.24 seconds =       0.75 minutes
	system time =       1.13 seconds =       0.02 minutes
	total time  =         15 seconds =       0.25 minutes
Total time:
	user time   =      45.24 seconds =       0.75 minutes
	system time =       1.13 seconds =       0.02 minutes
	total time  =         15 seconds =       0.25 minutes

    Psi4 stopped on: Tuesday, 18 January 2022 09:41PM
    Psi4 wall time for execution: 0:00:15.28

*** Psi4 exiting successfully. Buy a developer a beer!
