
    -----------------------------------------------------------------------
          Psi4: An Open-Source Ab Initio Electronic Structure Package
                               Psi4 1.3.2 release

                         Git: Rev {} zzzzzzz 


    R. M. Parrish, L. A. Burns, D. G. A. Smith, A. C. Simmonett,
    A. E. DePrince III, E. G. Hohenstein, U. Bozkaya, A. Yu. Sokolov,
    R. Di Remigio, R. M. Richard, J. F. Gonthier, A. M. James,
    H. R. McAlexander, A. Kumar, M. Saitow, X. Wang, B. P. Pritchard,
    P. Verma, H. F. Schaefer III, K. Patkowski, R. A. King, E. F. Valeev,
    F. A. Evangelista, J. M. Turney, T. D. Crawford, and C. D. Sherrill,
    J. Chem. Theory Comput. 13(7) pp 3185--3197 (2017).
    (doi: 10.1021/acs.jctc.7b00174)


                         Additional Contributions by
    P. Kraus, H. Kruse, M. H. Lechner, M. C. Schieber, R. A. Shaw,
    A. Alenaizan, R. Galvelis, Z. L. Glick, S. Lehtola, and J. P. Misiewicz

    -----------------------------------------------------------------------


    Psi4 started on: Saturday, 10 July 2021 02:03PM

    Process ID: 1412574
    Host:       thinkpad
    PSIDATADIR: /usr/share/psi4
    Memory:     500.0 MiB
    Threads:    4
    
  ==> Input File <==

--------------------------------------------------------------------------
# PBE0/def2-SV(P) calculation on methylcyclohexane conformer #5 

memory 4 gb

molecule {
	    C     0.9720996685   0.0330695729  -0.3318897492
	    C     0.3235569756  -1.3050446844   0.0554571038
	    C     0.2796016137   1.1705482584   0.4083746420
	    C    -1.1703681178  -1.1739962880   0.3782545344
	    C    -1.1870623309   1.3075102013  -0.0197810080
	    C    -1.8008398350  -0.0410841244  -0.4173023050
	    C     2.4717812077   0.0115000082  -0.0918548430
	    H     0.8079059374   0.1951056591  -1.4056578331
	    H     0.8501585016  -1.7189944260   0.9229279740
	    H     0.4706158944  -2.0219579368  -0.7590601820
	    H     0.8106120207   2.1131540195   0.2443816225
	    H     0.3431013654   0.9716027139   1.4853446212
	    H    -1.3044229007  -0.9707204650   1.4466600017
	    H    -1.6833375404  -2.1197620265   0.1839905214
	    H    -1.2647997277   2.0046582787  -0.8596593487
	    H    -1.7639195440   1.7505989654   0.7978190433
	    H    -1.6401819754  -0.2256721328  -1.4853354173
	    H    -2.8844132340  -0.0195483901  -0.2732150587
	    H     2.9471805654   0.9310761445  -0.4436409694
	    H     2.6908179710  -0.0903298775   0.9759217704
	    H     2.9450889639  -0.8290126506  -0.6073234270
}

set basis def2-SV(P)
energy('pbe0')
--------------------------------------------------------------------------

  Memory set to   3.725 GiB by Python driver.

*** tstart() called on thinkpad
*** at Sat Jul 10 14:03:21 2021

   => Loading Basis Set <=

    Name: DEF2-SV(P)
    Role: ORBITAL
    Keyword: BASIS
    atoms 1-7  entry C          line    88 file /usr/share/psi4/basis/def2-sv_p_.gbs 
    atoms 8-21 entry H          line    15 file /usr/share/psi4/basis/def2-sv_p_.gbs 


         ---------------------------------------------------------
                                   SCF
               by Justin Turney, Rob Parrish, Andy Simmonett
                          and Daniel G. A. Smith
                              RKS Reference
                        4 Threads,   3814 MiB Core
         ---------------------------------------------------------

  ==> Geometry <==

    Molecular point group: c1
    Full point group: C1

    Geometry (in Angstrom), charge = 0, multiplicity = 1:

       Center              X                  Y                   Z               Mass       
    ------------   -----------------  -----------------  -----------------  -----------------
         C            0.972099668488     0.033069572888    -0.331889749202    12.000000000000
         C            0.323556975588    -1.305044684412     0.055457103798    12.000000000000
         C            0.279601613688     1.170548258388     0.408374641998    12.000000000000
         C           -1.170368117812    -1.173996288012     0.378254534398    12.000000000000
         C           -1.187062330912     1.307510201288    -0.019781008002    12.000000000000
         C           -1.800839835012    -0.041084124412    -0.417302305002    12.000000000000
         C            2.471781207688     0.011500008188    -0.091854843002    12.000000000000
         H            0.807905937388     0.195105659088    -1.405657833102     1.007825032230
         H            0.850158501588    -1.718994426012     0.922927973998     1.007825032230
         H            0.470615894388    -2.021957936812    -0.759060182002     1.007825032230
         H            0.810612020688     2.113154019488     0.244381622498     1.007825032230
         H            0.343101365388     0.971602713888     1.485344621198     1.007825032230
         H           -1.304422900712    -0.970720465012     1.446660001698     1.007825032230
         H           -1.683337540412    -2.119762026512     0.183990521398     1.007825032230
         H           -1.264799727712     2.004658278688    -0.859659348702     1.007825032230
         H           -1.763919544012     1.750598965388     0.797819043298     1.007825032230
         H           -1.640181975412    -0.225672132812    -1.485335417302     1.007825032230
         H           -2.884413234012    -0.019548390112    -0.273215058702     1.007825032230
         H            2.947180565388     0.931076144488    -0.443640969402     1.007825032230
         H            2.690817970988    -0.090329877512     0.975921770398     1.007825032230
         H            2.945088963888    -0.829012650612    -0.607323427002     1.007825032230

  Running in c1 symmetry.

  Rotational constants: A =      0.13921  B =      0.07423  C =      0.05482 [cm^-1]
  Rotational constants: A =   4173.31360  B =   2225.44463  C =   1643.37922 [MHz]
  Nuclear repulsion =  330.301052767388285

  Charge       = 0
  Multiplicity = 1
  Electrons    = 56
  Nalpha       = 28
  Nbeta        = 28

  ==> Algorithm <==

  SCF Algorithm Type is DF.
  DIIS enabled.
  MOM disabled.
  Fractional occupation disabled.
  Guess Type is SAD.
  Energy threshold   = 1.00e-06
  Density threshold  = 1.00e-06
  Integral threshold = 0.00e+00

  ==> Primary Basis <==

  Basis Set: DEF2-SV(P)
    Blend: DEF2-SV(P)
    Number of shells: 70
    Number of basis function: 126
    Number of Cartesian functions: 133
    Spherical Harmonics?: true
    Max angular momentum: 2

  ==> DFT Potential <==

   => Composite Functional: PBE0 <= 

    PBE0 Hyb-GGA Exchange-Correlation Functional

    C. Adamo and V. Barone, J. Chem. Phys. 110, 6158 (1999)
    M. Ernzerhof and G. E. Scuseria, J. Chem. Phys. 110, 5029 (1999)

    Deriv               =              1
    GGA                 =           TRUE
    Meta                =          FALSE

    Exchange Hybrid     =           TRUE
    MP2 Hybrid          =          FALSE

   => Exchange Functionals <=

    0.7500   Perdew, Burke & Ernzerhof

   => Exact (HF) Exchange <=

    0.2500               HF 

   => Correlation Functionals <=

    1.0000   Perdew, Burke & Ernzerhof

   => Molecular Quadrature <=

    Radial Scheme          =       TREUTLER
    Pruning Scheme         =           FLAT
    Nuclear Scheme         =       TREUTLER

    BS radius alpha        =              1
    Pruning alpha          =              1
    Radial Points          =             75
    Spherical Points       =            302
    Total Points           =         469435
    Total Blocks           =           3453
    Max Points             =            256
    Max Functions          =            125

   => Loading Basis Set <=

    Name: (DEF2-SV(P) AUX)
    Role: JKFIT
    Keyword: DF_BASIS_SCF
    atoms 1-7  entry C          line   203 file /usr/share/psi4/basis/def2-sv_p_-jkfit.gbs 
    atoms 8-21 entry H          line    23 file /usr/share/psi4/basis/def2-sv_p_-jkfit.gbs 

  ==> Pre-Iterations <==

   -------------------------------------------------------
    Irrep   Nso     Nmo     Nalpha   Nbeta   Ndocc  Nsocc
   -------------------------------------------------------
     A        126     126       0       0       0       0
   -------------------------------------------------------
    Total     126     126      28      28      28       0
   -------------------------------------------------------

  ==> Integral Setup <==

  DFHelper Memory: AOs need 0.099 GiB; user supplied 1.430 GiB. Using in-core AOs.

  ==> MemDFJK: Density-Fitted J/K Matrices <==

    J tasked:                   Yes
    K tasked:                   Yes
    wK tasked:                   No
    OpenMP threads:               4
    Memory [MiB]:              1464
    Algorithm:                 Core
    Schwarz Cutoff:           1E-12
    Mask sparsity (%):       0.8062
    Fitting Condition:        1E-10

   => Auxiliary Basis Set <=

  Basis Set: (DEF2-SV(P) AUX)
    Blend: DEF2-SV_P_-JKFIT
    Number of shells: 259
    Number of basis function: 777
    Number of Cartesian functions: 903
    Spherical Harmonics?: true
    Max angular momentum: 4

  Cached 100.0% of DFT collocation blocks in 1.364 [GiB].

  Minimum eigenvalue in the overlap matrix is 7.3518188083E-04.
  Using Symmetric Orthogonalization.

  SCF Guess: Superposition of Atomic Densities via on-the-fly atomic UHF.

  ==> Iterations <==

                           Total Energy        Delta E     RMS |[F,P]|

   @DF-RKS iter SAD:  -274.32095171946224   -2.74321e+02   0.00000e+00 
   @DF-RKS iter   1:  -274.03732915890339    2.83623e-01   8.09742e-03 DIIS
   @DF-RKS iter   2:  -273.73951470432246    2.97814e-01   1.00566e-02 DIIS
   @DF-RKS iter   3:  -274.61447267627511   -8.74958e-01   8.22955e-04 DIIS
   @DF-RKS iter   4:  -274.61876014632156   -4.28747e-03   3.32880e-04 DIIS
   @DF-RKS iter   5:  -274.61958503161077   -8.24885e-04   7.14269e-05 DIIS
   @DF-RKS iter   6:  -274.61962520105902   -4.01694e-05   7.36528e-06 DIIS
   @DF-RKS iter   7:  -274.61962556695408   -3.65895e-07   3.55516e-06 DIIS
   @DF-RKS iter   8:  -274.61962566292959   -9.59755e-08   6.05145e-07 DIIS
  Energy and wave function converged.


  ==> Post-Iterations <==

    Orbital Energies [Eh]
    ---------------------

    Doubly Occupied:                                                      

       1A    -10.224966     2A    -10.216222     3A    -10.216106  
       4A    -10.215935     5A    -10.215051     6A    -10.214691  
       7A    -10.209158     8A     -0.854059     9A     -0.777474  
      10A     -0.750815    11A     -0.685604    12A     -0.623005  
      13A     -0.603956    14A     -0.533696    15A     -0.501974  
      16A     -0.481216    17A     -0.454988    18A     -0.426671  
      19A     -0.418720    20A     -0.392595    21A     -0.383608  
      22A     -0.374870    23A     -0.364856    24A     -0.354190  
      25A     -0.350342    26A     -0.310139    27A     -0.304366  
      28A     -0.302358  

    Virtual:                                                              

      29A      0.060940    30A      0.081396    31A      0.091186  
      32A      0.105146    33A      0.128291    34A      0.133877  
      35A      0.139106    36A      0.147461    37A      0.149856  
      38A      0.161254    39A      0.173680    40A      0.182763  
      41A      0.186385    42A      0.202332    43A      0.215496  
      44A      0.221830    45A      0.256592    46A      0.268321  
      47A      0.278155    48A      0.311959    49A      0.318103  
      50A      0.432745    51A      0.443824    52A      0.455737  
      53A      0.461341    54A      0.470631    55A      0.495310  
      56A      0.520324    57A      0.578090    58A      0.608342  
      59A      0.614244    60A      0.642009    61A      0.653995  
      62A      0.656893    63A      0.673667    64A      0.687258  
      65A      0.701395    66A      0.702888    67A      0.707348  
      68A      0.721345    69A      0.726379    70A      0.729186  
      71A      0.737178    72A      0.741400    73A      0.744321  
      74A      0.750345    75A      0.757724    76A      0.769110  
      77A      0.769418    78A      0.774682    79A      0.778248  
      80A      0.794872    81A      0.802087    82A      0.836787  
      83A      0.873237    84A      0.943159    85A      1.037092  
      86A      1.056823    87A      1.062239    88A      1.124802  
      89A      1.213608    90A      1.303250    91A      1.315596  
      92A      1.416846    93A      1.452494    94A      1.634530  
      95A      1.665111    96A      1.721349    97A      1.760695  
      98A      1.774364    99A      1.832895   100A      1.862756  
     101A      1.896584   102A      1.919658   103A      1.934181  
     104A      1.964902   105A      1.994322   106A      2.020322  
     107A      2.037017   108A      2.074858   109A      2.113179  
     110A      2.138074   111A      2.166420   112A      2.202983  
     113A      2.237284   114A      2.284565   115A      2.328090  
     116A      2.373562   117A      2.391973   118A      2.423015  
     119A      2.448983   120A      2.479626   121A      2.595288  
     122A      2.656484   123A      2.671865   124A      2.731844  
     125A      2.796680   126A      2.819980  

    Final Occupation by Irrep:
              A 
    DOCC [    28 ]

  @DF-RKS Final Energy:  -274.61962566292959

   => Energetics <=

    Nuclear Repulsion Energy =            330.3010527673882848
    One-Electron Energy =               -1023.0392860133816839
    Two-Electron Energy =                 450.7159536004104439
    DFT Exchange-Correlation Energy =     -32.5973460173467515
    Empirical Dispersion Energy =           0.0000000000000000
    VV10 Nonlocal Energy =                  0.0000000000000000
    Total Energy =                       -274.6196256629296499

Computation Completed


Properties will be evaluated at   0.000000,   0.000000,   0.000000 [a0]

Properties computed using the SCF density matrix

  Nuclear Dipole Moment: [e a0]
     X:     1.2416      Y:    -0.0279      Z:     0.2092

  Electronic Dipole Moment: [e a0]
     X:    -1.2658      Y:     0.0289      Z:    -0.2343

  Dipole Moment: [e a0]
     X:    -0.0242      Y:     0.0010      Z:    -0.0251     Total:     0.0349

  Dipole Moment: [D]
     X:    -0.0616      Y:     0.0024      Z:    -0.0638     Total:     0.0888


*** tstop() called on thinkpad at Sat Jul 10 14:03:33 2021
Module time:
	user time   =      33.11 seconds =       0.55 minutes
	system time =       0.80 seconds =       0.01 minutes
	total time  =         12 seconds =       0.20 minutes
Total time:
	user time   =      33.11 seconds =       0.55 minutes
	system time =       0.80 seconds =       0.01 minutes
	total time  =         12 seconds =       0.20 minutes

    Psi4 stopped on: Saturday, 10 July 2021 02:03PM
    Psi4 wall time for execution: 0:00:11.69

*** Psi4 exiting successfully. Buy a developer a beer!
