
    -----------------------------------------------------------------------
          Psi4: An Open-Source Ab Initio Electronic Structure Package
                               Psi4 1.3.2 release

                         Git: Rev {} zzzzzzz 


    R. M. Parrish, L. A. Burns, D. G. A. Smith, A. C. Simmonett,
    A. E. DePrince III, E. G. Hohenstein, U. Bozkaya, A. Yu. Sokolov,
    R. Di Remigio, R. M. Richard, J. F. Gonthier, A. M. James,
    H. R. McAlexander, A. Kumar, M. Saitow, X. Wang, B. P. Pritchard,
    P. Verma, H. F. Schaefer III, K. Patkowski, R. A. King, E. F. Valeev,
    F. A. Evangelista, J. M. Turney, T. D. Crawford, and C. D. Sherrill,
    J. Chem. Theory Comput. 13(7) pp 3185--3197 (2017).
    (doi: 10.1021/acs.jctc.7b00174)


                         Additional Contributions by
    P. Kraus, H. Kruse, M. H. Lechner, M. C. Schieber, R. A. Shaw,
    A. Alenaizan, R. Galvelis, Z. L. Glick, S. Lehtola, and J. P. Misiewicz

    -----------------------------------------------------------------------


    Psi4 started on: Saturday, 10 July 2021 02:04PM

    Process ID: 1419099
    Host:       thinkpad
    PSIDATADIR: /usr/share/psi4
    Memory:     500.0 MiB
    Threads:    4
    
  ==> Input File <==

--------------------------------------------------------------------------
# PBE0/def2-SVP calculation on methylcyclohexane conformer #5 

memory 4 gb

molecule {
	    C     0.9720996685   0.0330695729  -0.3318897492
	    C     0.3235569756  -1.3050446844   0.0554571038
	    C     0.2796016137   1.1705482584   0.4083746420
	    C    -1.1703681178  -1.1739962880   0.3782545344
	    C    -1.1870623309   1.3075102013  -0.0197810080
	    C    -1.8008398350  -0.0410841244  -0.4173023050
	    C     2.4717812077   0.0115000082  -0.0918548430
	    H     0.8079059374   0.1951056591  -1.4056578331
	    H     0.8501585016  -1.7189944260   0.9229279740
	    H     0.4706158944  -2.0219579368  -0.7590601820
	    H     0.8106120207   2.1131540195   0.2443816225
	    H     0.3431013654   0.9716027139   1.4853446212
	    H    -1.3044229007  -0.9707204650   1.4466600017
	    H    -1.6833375404  -2.1197620265   0.1839905214
	    H    -1.2647997277   2.0046582787  -0.8596593487
	    H    -1.7639195440   1.7505989654   0.7978190433
	    H    -1.6401819754  -0.2256721328  -1.4853354173
	    H    -2.8844132340  -0.0195483901  -0.2732150587
	    H     2.9471805654   0.9310761445  -0.4436409694
	    H     2.6908179710  -0.0903298775   0.9759217704
	    H     2.9450889639  -0.8290126506  -0.6073234270
}

set basis def2-SVP
energy('pbe0')
--------------------------------------------------------------------------

  Memory set to   3.725 GiB by Python driver.

*** tstart() called on thinkpad
*** at Sat Jul 10 14:04:46 2021

   => Loading Basis Set <=

    Name: DEF2-SVP
    Role: ORBITAL
    Keyword: BASIS
    atoms 1-7  entry C          line    90 file /usr/share/psi4/basis/def2-svp.gbs 
    atoms 8-21 entry H          line    15 file /usr/share/psi4/basis/def2-svp.gbs 


         ---------------------------------------------------------
                                   SCF
               by Justin Turney, Rob Parrish, Andy Simmonett
                          and Daniel G. A. Smith
                              RKS Reference
                        4 Threads,   3814 MiB Core
         ---------------------------------------------------------

  ==> Geometry <==

    Molecular point group: c1
    Full point group: C1

    Geometry (in Angstrom), charge = 0, multiplicity = 1:

       Center              X                  Y                   Z               Mass       
    ------------   -----------------  -----------------  -----------------  -----------------
         C            0.972099668488     0.033069572888    -0.331889749202    12.000000000000
         C            0.323556975588    -1.305044684412     0.055457103798    12.000000000000
         C            0.279601613688     1.170548258388     0.408374641998    12.000000000000
         C           -1.170368117812    -1.173996288012     0.378254534398    12.000000000000
         C           -1.187062330912     1.307510201288    -0.019781008002    12.000000000000
         C           -1.800839835012    -0.041084124412    -0.417302305002    12.000000000000
         C            2.471781207688     0.011500008188    -0.091854843002    12.000000000000
         H            0.807905937388     0.195105659088    -1.405657833102     1.007825032230
         H            0.850158501588    -1.718994426012     0.922927973998     1.007825032230
         H            0.470615894388    -2.021957936812    -0.759060182002     1.007825032230
         H            0.810612020688     2.113154019488     0.244381622498     1.007825032230
         H            0.343101365388     0.971602713888     1.485344621198     1.007825032230
         H           -1.304422900712    -0.970720465012     1.446660001698     1.007825032230
         H           -1.683337540412    -2.119762026512     0.183990521398     1.007825032230
         H           -1.264799727712     2.004658278688    -0.859659348702     1.007825032230
         H           -1.763919544012     1.750598965388     0.797819043298     1.007825032230
         H           -1.640181975412    -0.225672132812    -1.485335417302     1.007825032230
         H           -2.884413234012    -0.019548390112    -0.273215058702     1.007825032230
         H            2.947180565388     0.931076144488    -0.443640969402     1.007825032230
         H            2.690817970988    -0.090329877512     0.975921770398     1.007825032230
         H            2.945088963888    -0.829012650612    -0.607323427002     1.007825032230

  Running in c1 symmetry.

  Rotational constants: A =      0.13921  B =      0.07423  C =      0.05482 [cm^-1]
  Rotational constants: A =   4173.31360  B =   2225.44463  C =   1643.37922 [MHz]
  Nuclear repulsion =  330.301052767388285

  Charge       = 0
  Multiplicity = 1
  Electrons    = 56
  Nalpha       = 28
  Nbeta        = 28

  ==> Algorithm <==

  SCF Algorithm Type is DF.
  DIIS enabled.
  MOM disabled.
  Fractional occupation disabled.
  Guess Type is SAD.
  Energy threshold   = 1.00e-06
  Density threshold  = 1.00e-06
  Integral threshold = 0.00e+00

  ==> Primary Basis <==

  Basis Set: DEF2-SVP
    Blend: DEF2-SVP
    Number of shells: 84
    Number of basis function: 168
    Number of Cartesian functions: 175
    Spherical Harmonics?: true
    Max angular momentum: 2

  ==> DFT Potential <==

   => Composite Functional: PBE0 <= 

    PBE0 Hyb-GGA Exchange-Correlation Functional

    C. Adamo and V. Barone, J. Chem. Phys. 110, 6158 (1999)
    M. Ernzerhof and G. E. Scuseria, J. Chem. Phys. 110, 5029 (1999)

    Deriv               =              1
    GGA                 =           TRUE
    Meta                =          FALSE

    Exchange Hybrid     =           TRUE
    MP2 Hybrid          =          FALSE

   => Exchange Functionals <=

    0.7500   Perdew, Burke & Ernzerhof

   => Exact (HF) Exchange <=

    0.2500               HF 

   => Correlation Functionals <=

    1.0000   Perdew, Burke & Ernzerhof

   => Molecular Quadrature <=

    Radial Scheme          =       TREUTLER
    Pruning Scheme         =           FLAT
    Nuclear Scheme         =       TREUTLER

    BS radius alpha        =              1
    Pruning alpha          =              1
    Radial Points          =             75
    Spherical Points       =            302
    Total Points           =         469435
    Total Blocks           =           3453
    Max Points             =            256
    Max Functions          =            167

   => Loading Basis Set <=

    Name: (DEF2-SVP AUX)
    Role: JKFIT
    Keyword: DF_BASIS_SCF
    atoms 1-7  entry C          line   203 file /usr/share/psi4/basis/def2-svp-jkfit.gbs 
    atoms 8-21 entry H          line    23 file /usr/share/psi4/basis/def2-svp-jkfit.gbs 

  ==> Pre-Iterations <==

   -------------------------------------------------------
    Irrep   Nso     Nmo     Nalpha   Nbeta   Ndocc  Nsocc
   -------------------------------------------------------
     A        168     168       0       0       0       0
   -------------------------------------------------------
    Total     168     168      28      28      28       0
   -------------------------------------------------------

  ==> Integral Setup <==

  DFHelper Memory: AOs need 0.170 GiB; user supplied 1.135 GiB. Using in-core AOs.

  ==> MemDFJK: Density-Fitted J/K Matrices <==

    J tasked:                   Yes
    K tasked:                   Yes
    wK tasked:                   No
    OpenMP threads:               4
    Memory [MiB]:              1161
    Algorithm:                 Core
    Schwarz Cutoff:           1E-12
    Mask sparsity (%):       2.8982
    Fitting Condition:        1E-10

   => Auxiliary Basis Set <=

  Basis Set: (DEF2-SVP AUX)
    Blend: DEF2-SVP-JKFIT
    Number of shells: 259
    Number of basis function: 777
    Number of Cartesian functions: 903
    Spherical Harmonics?: true
    Max angular momentum: 4

  Cached 100.0% of DFT collocation blocks in 1.659 [GiB].

  Minimum eigenvalue in the overlap matrix is 6.0421082671E-04.
  Using Symmetric Orthogonalization.

  SCF Guess: Superposition of Atomic Densities via on-the-fly atomic UHF.

  ==> Iterations <==

                           Total Energy        Delta E     RMS |[F,P]|

   @DF-RKS iter SAD:  -274.32095171946276   -2.74321e+02   0.00000e+00 
   @DF-RKS iter   1:  -274.07708615483591    2.43866e-01   5.99111e-03 DIIS
   @DF-RKS iter   2:  -273.76969615468329    3.07390e-01   7.55858e-03 DIIS
   @DF-RKS iter   3:  -274.64591677660707   -8.76221e-01   6.48581e-04 DIIS
   @DF-RKS iter   4:  -274.65065087802583   -4.73410e-03   2.55056e-04 DIIS
   @DF-RKS iter   5:  -274.65150989630308   -8.59018e-04   5.55454e-05 DIIS
   @DF-RKS iter   6:  -274.65155263358332   -4.27373e-05   6.31185e-06 DIIS
   @DF-RKS iter   7:  -274.65155314206203   -5.08479e-07   2.76960e-06 DIIS
   @DF-RKS iter   8:  -274.65155324530593   -1.03244e-07   5.08133e-07 DIIS
  Energy and wave function converged.


  ==> Post-Iterations <==

    Orbital Energies [Eh]
    ---------------------

    Doubly Occupied:                                                      

       1A    -10.226230     2A    -10.220264     3A    -10.220158  
       4A    -10.220010     5A    -10.218892     6A    -10.218557  
       7A    -10.216153     8A     -0.853122     9A     -0.776521  
      10A     -0.749722    11A     -0.684540    12A     -0.621463  
      13A     -0.602385    14A     -0.531658    15A     -0.499860  
      16A     -0.479485    17A     -0.452987    18A     -0.424652  
      19A     -0.416532    20A     -0.390425    21A     -0.381952  
      22A     -0.373507    23A     -0.362996    24A     -0.352178  
      25A     -0.348037    26A     -0.308789    27A     -0.302744  
      28A     -0.300094  

    Virtual:                                                              

      29A      0.060838    30A      0.081669    31A      0.090895  
      32A      0.105051    33A      0.128200    34A      0.133674  
      35A      0.139122    36A      0.147385    37A      0.149854  
      38A      0.161170    39A      0.173471    40A      0.182645  
      41A      0.186223    42A      0.202223    43A      0.215559  
      44A      0.221739    45A      0.256544    46A      0.268116  
      47A      0.278201    48A      0.310822    49A      0.317566  
      50A      0.427490    51A      0.438367    52A      0.449336  
      53A      0.452737    54A      0.461172    55A      0.482891  
      56A      0.505563    57A      0.560490    58A      0.590628  
      59A      0.600098    60A      0.622490    61A      0.638855  
      62A      0.640349    63A      0.643164    64A      0.660692  
      65A      0.668475    66A      0.675902    67A      0.683209  
      68A      0.690574    69A      0.697645    70A      0.707270  
      71A      0.710302    72A      0.714041    73A      0.717427  
      74A      0.726386    75A      0.730137    76A      0.737263  
      77A      0.742647    78A      0.749870    79A      0.756641  
      80A      0.763154    81A      0.773557    82A      0.794299  
      83A      0.833485    84A      0.918105    85A      0.992679  
      86A      1.010042    87A      1.028574    88A      1.052243  
      89A      1.106306    90A      1.116981    91A      1.227860  
      92A      1.257410    93A      1.280424    94A      1.335560  
      95A      1.343783    96A      1.363695    97A      1.414715  
      98A      1.459988    99A      1.501677   100A      1.515722  
     101A      1.557166   102A      1.597170   103A      1.626413  
     104A      1.664680   105A      1.730205   106A      1.750771  
     107A      1.759474   108A      1.775150   109A      1.793258  
     110A      1.801993   111A      1.811526   112A      1.812917  
     113A      1.827298   114A      1.835728   115A      1.845145  
     116A      1.848354   117A      1.864832   118A      1.875097  
     119A      1.887768   120A      1.903110   121A      1.905415  
     122A      1.909648   123A      1.934909   124A      1.943009  
     125A      1.954361   126A      1.987990   127A      2.006571  
     128A      2.033246   129A      2.059966   130A      2.076761  
     131A      2.109446   132A      2.119586   133A      2.130007  
     134A      2.148988   135A      2.217626   136A      2.251185  
     137A      2.278837   138A      2.310934   139A      2.342815  
     140A      2.377959   141A      2.404019   142A      2.435185  
     143A      2.451792   144A      2.468470   145A      2.529852  
     146A      2.544305   147A      2.564647   148A      2.577863  
     149A      2.624614   150A      2.657135   151A      2.671462  
     152A      2.702713   153A      2.721349   154A      2.767511  
     155A      2.859434   156A      2.878087   157A      2.888853  
     158A      2.909845   159A      2.931285   160A      2.952913  
     161A      2.987742   162A      3.020432   163A      3.055548  
     164A      3.098018   165A      3.110090   166A      3.119768  
     167A      3.132844   168A      3.166590  

    Final Occupation by Irrep:
              A 
    DOCC [    28 ]

  @DF-RKS Final Energy:  -274.65155324530593

   => Energetics <=

    Nuclear Repulsion Energy =            330.3010527673882848
    One-Electron Energy =               -1023.1166038729594447
    Two-Electron Energy =                 450.7621012090588692
    DFT Exchange-Correlation Energy =     -32.5981033487936713
    Empirical Dispersion Energy =           0.0000000000000000
    VV10 Nonlocal Energy =                  0.0000000000000000
    Total Energy =                       -274.6515532453058768

Computation Completed


Properties will be evaluated at   0.000000,   0.000000,   0.000000 [a0]

Properties computed using the SCF density matrix

  Nuclear Dipole Moment: [e a0]
     X:     1.2416      Y:    -0.0279      Z:     0.2092

  Electronic Dipole Moment: [e a0]
     X:    -1.2630      Y:     0.0291      Z:    -0.2322

  Dipole Moment: [e a0]
     X:    -0.0214      Y:     0.0012      Z:    -0.0230     Total:     0.0314

  Dipole Moment: [D]
     X:    -0.0543      Y:     0.0029      Z:    -0.0585     Total:     0.0799


*** tstop() called on thinkpad at Sat Jul 10 14:05:00 2021
Module time:
	user time   =      42.64 seconds =       0.71 minutes
	system time =       0.89 seconds =       0.01 minutes
	total time  =         14 seconds =       0.23 minutes
Total time:
	user time   =      42.64 seconds =       0.71 minutes
	system time =       0.89 seconds =       0.01 minutes
	total time  =         14 seconds =       0.23 minutes

    Psi4 stopped on: Saturday, 10 July 2021 02:05PM
    Psi4 wall time for execution: 0:00:14.26

*** Psi4 exiting successfully. Buy a developer a beer!
