
    -----------------------------------------------------------------------
          Psi4: An Open-Source Ab Initio Electronic Structure Package
                               Psi4 1.3.2 release

                         Git: Rev {} zzzzzzz 


    R. M. Parrish, L. A. Burns, D. G. A. Smith, A. C. Simmonett,
    A. E. DePrince III, E. G. Hohenstein, U. Bozkaya, A. Yu. Sokolov,
    R. Di Remigio, R. M. Richard, J. F. Gonthier, A. M. James,
    H. R. McAlexander, A. Kumar, M. Saitow, X. Wang, B. P. Pritchard,
    P. Verma, H. F. Schaefer III, K. Patkowski, R. A. King, E. F. Valeev,
    F. A. Evangelista, J. M. Turney, T. D. Crawford, and C. D. Sherrill,
    J. Chem. Theory Comput. 13(7) pp 3185--3197 (2017).
    (doi: 10.1021/acs.jctc.7b00174)


                         Additional Contributions by
    P. Kraus, H. Kruse, M. H. Lechner, M. C. Schieber, R. A. Shaw,
    A. Alenaizan, R. Galvelis, Z. L. Glick, S. Lehtola, and J. P. Misiewicz

    -----------------------------------------------------------------------


    Psi4 started on: Saturday, 10 July 2021 02:24PM

    Process ID: 1461855
    Host:       thinkpad
    PSIDATADIR: /usr/share/psi4
    Memory:     500.0 MiB
    Threads:    4
    
  ==> Input File <==

--------------------------------------------------------------------------
# PBE0/def2-QZVP calculation on methylcyclohexane conformer #1 

memory 4 gb

molecule {
	    C     1.0234635301  -0.0007742584  -0.3188737608
	    C     0.3017073042  -1.2512272050   0.1754664506
	    C     0.3015407335   1.2521760054   0.1688550931
	    C    -1.1716680006  -1.2570432683  -0.2098978696
	    C    -1.1718340143   1.2557610872  -0.2165376958
	    C    -1.8784232212   0.0006089036   0.2775860010
	    C     2.4864421419   0.0004088613   0.0921086014
	    H     0.9757292467  -0.0036779398  -1.4177990159
	    H     0.3909380472  -1.2979228946   1.2695859885
	    H     0.8001658533  -2.1458479188  -0.2128965357
	    H     0.7998815010   2.1448001810  -0.2242245068
	    H     0.3907613197   1.3046596032   1.2627128354
	    H    -1.6634660762  -2.1493772943   0.1893364041
	    H    -1.2580192071  -1.3177976373  -1.3022530632
	    H    -1.2581920758   1.3107307698  -1.3091990966
	    H    -1.6637514674   2.1501274299   0.1779740826
	    H    -2.9238724708  -0.0003137287  -0.0456811441
	    H    -1.8915895205   0.0035075693   1.3750264201
	    H     3.0069628066   0.8833885032  -0.2885857215
	    H     2.5824721248   0.0032426413   1.1826107493
	    H     3.0071038496  -0.8844491666  -0.2840048623
}

# It is beneficial to initialize larger-basis calculations with
# a small reasonable basis; use def2-SV(P) for this purpose
set basis_guess def2-SV(P)
set basis def2-QZVP
energy('pbe0')
--------------------------------------------------------------------------

  Memory set to   3.725 GiB by Python driver.

*** tstart() called on thinkpad
*** at Sat Jul 10 14:24:09 2021


  //>>>>>>>>>>>>>>>>>>>>>>>>>>>>>>>>>>>//
  //    Guess SCF, DEF2-SV(P) Basis    //
  //<<<<<<<<<<<<<<<<<<<<<<<<<<<<<<<<<<<//

   => Loading Basis Set <=

    Name: DEF2-SV(P)
    Role: ORBITAL
    Keyword: BASIS
    atoms 1-7  entry C          line    88 file /usr/share/psi4/basis/def2-sv_p_.gbs 
    atoms 8-21 entry H          line    15 file /usr/share/psi4/basis/def2-sv_p_.gbs 


         ---------------------------------------------------------
                           SCF Castup computation                  
         ---------------------------------------------------------
                                   SCF
               by Justin Turney, Rob Parrish, Andy Simmonett
                          and Daniel G. A. Smith
                              RKS Reference
                        4 Threads,   3814 MiB Core
         ---------------------------------------------------------

  ==> Geometry <==

    Molecular point group: c1
    Full point group: C1

    Geometry (in Angstrom), charge = 0, multiplicity = 1:

       Center              X                  Y                   Z               Mass       
    ------------   -----------------  -----------------  -----------------  -----------------
         C            1.023463530092    -0.000774258409    -0.318873760795    12.000000000000
         C            0.301707304192    -1.251227205009     0.175466450605    12.000000000000
         C            0.301540733492     1.252176005391     0.168855093105    12.000000000000
         C           -1.171668000608    -1.257043268309    -0.209897869595    12.000000000000
         C           -1.171834014308     1.255761087191    -0.216537695795    12.000000000000
         C           -1.878423221208     0.000608903591     0.277586001005    12.000000000000
         C            2.486442141892     0.000408861291     0.092108601405    12.000000000000
         H            0.975729246692    -0.003677939809    -1.417799015895     1.007825032230
         H            0.390938047192    -1.297922894609     1.269585988505     1.007825032230
         H            0.800165853292    -2.145847918809    -0.212896535695     1.007825032230
         H            0.799881500992     2.144800180991    -0.224224506795     1.007825032230
         H            0.390761319692     1.304659603191     1.262712835405     1.007825032230
         H           -1.663466076208    -2.149377294309     0.189336404105     1.007825032230
         H           -1.258019207108    -1.317797637309    -1.302253063195     1.007825032230
         H           -1.258192075808     1.310730769791    -1.309199096595     1.007825032230
         H           -1.663751467408     2.150127429891     0.177974082605     1.007825032230
         H           -2.923872470808    -0.000313728709    -0.045681144095     1.007825032230
         H           -1.891589520508     0.003507569291     1.375026420105     1.007825032230
         H            3.006962806592     0.883388503191    -0.288585721495     1.007825032230
         H            2.582472124792     0.003242641291     1.182610749305     1.007825032230
         H            3.007103849592    -0.884449166609    -0.284004862295     1.007825032230

  Running in c1 symmetry.

  Rotational constants: A =      0.14174  B =      0.07358  C =      0.05347 [cm^-1]
  Rotational constants: A =   4249.12123  B =   2205.73008  C =   1602.93701 [MHz]
  Nuclear repulsion =  329.947426242185145

  Charge       = 0
  Multiplicity = 1
  Electrons    = 56
  Nalpha       = 28
  Nbeta        = 28

  ==> Algorithm <==

  SCF Algorithm Type is DF.
  DIIS enabled.
  MOM disabled.
  Fractional occupation disabled.
  Guess Type is SAD.
  Energy threshold   = 1.00e-06
  Density threshold  = 1.00e-06
  Integral threshold = 0.00e+00

  ==> Primary Basis <==

  Basis Set: DEF2-SV(P)
    Blend: DEF2-SV(P)
    Number of shells: 70
    Number of basis function: 126
    Number of Cartesian functions: 133
    Spherical Harmonics?: true
    Max angular momentum: 2

  ==> DFT Potential <==

   => Composite Functional: PBE0 <= 

    PBE0 Hyb-GGA Exchange-Correlation Functional

    C. Adamo and V. Barone, J. Chem. Phys. 110, 6158 (1999)
    M. Ernzerhof and G. E. Scuseria, J. Chem. Phys. 110, 5029 (1999)

    Deriv               =              1
    GGA                 =           TRUE
    Meta                =          FALSE

    Exchange Hybrid     =           TRUE
    MP2 Hybrid          =          FALSE

   => Exchange Functionals <=

    0.7500   Perdew, Burke & Ernzerhof

   => Exact (HF) Exchange <=

    0.2500               HF 

   => Correlation Functionals <=

    1.0000   Perdew, Burke & Ernzerhof

   => Molecular Quadrature <=

    Radial Scheme          =       TREUTLER
    Pruning Scheme         =           FLAT
    Nuclear Scheme         =       TREUTLER

    BS radius alpha        =              1
    Pruning alpha          =              1
    Radial Points          =             75
    Spherical Points       =            302
    Total Points           =         469453
    Total Blocks           =           3448
    Max Points             =            256
    Max Functions          =            125

   => Loading Basis Set <=

    Name: (DEF2-SV(P) AUX)
    Role: JKFIT
    Keyword: DF_BASIS_SCF
    atoms 1-7  entry C          line   203 file /usr/share/psi4/basis/def2-sv_p_-jkfit.gbs 
    atoms 8-21 entry H          line    23 file /usr/share/psi4/basis/def2-sv_p_-jkfit.gbs 

  ==> Pre-Iterations <==

   -------------------------------------------------------
    Irrep   Nso     Nmo     Nalpha   Nbeta   Ndocc  Nsocc
   -------------------------------------------------------
     A        126     126       0       0       0       0
   -------------------------------------------------------
    Total     126     126      28      28      28       0
   -------------------------------------------------------

  ==> Integral Setup <==

  ==> DiskDFJK: Density-Fitted J/K Matrices <==

    J tasked:                  Yes
    K tasked:                  Yes
    wK tasked:                  No
    OpenMP threads:              4
    Integrals threads:           4
    Memory [MiB]:             1471
    Algorithm:                Core
    Integral Cache:           NONE
    Schwarz Cutoff:          1E-12
    Fitting Condition:       1E-10

   => Auxiliary Basis Set <=

  Basis Set: (DEF2-SV(P) AUX)
    Blend: DEF2-SV_P_-JKFIT
    Number of shells: 259
    Number of basis function: 777
    Number of Cartesian functions: 903
    Spherical Harmonics?: true
    Max angular momentum: 4

  Cached 100.0% of DFT collocation blocks in 1.357 [GiB].

  Minimum eigenvalue in the overlap matrix is 1.5011913053E-03.
  Using Symmetric Orthogonalization.

  SCF Guess: Superposition of Atomic Densities via on-the-fly atomic UHF.

  ==> Iterations <==

                           Total Energy        Delta E     RMS |[F,P]|

   @DF-RKS iter SAD:  -274.34661645747127   -2.74347e+02   0.00000e+00 
   @DF-RKS iter   1:  -274.03871034401959    3.07906e-01   8.15302e-03 DIIS
   @DF-RKS iter   2:  -273.73431477520461    3.04396e-01   1.01393e-02 DIIS
   @DF-RKS iter   3:  -274.62510878763146   -8.90794e-01   8.14732e-04 DIIS
   @DF-RKS iter   4:  -274.62931041086017   -4.20162e-03   3.34346e-04 DIIS
   @DF-RKS iter   5:  -274.63013959072157   -8.29180e-04   7.35081e-05 DIIS
   @DF-RKS iter   6:  -274.63018217030373   -4.25796e-05   7.62498e-06 DIIS
   @DF-RKS iter   7:  -274.63018256292810   -3.92624e-07   3.73137e-06 DIIS
   @DF-RKS iter   8:  -274.63018266991065   -1.06983e-07   5.92887e-07 DIIS
  Energy and wave function converged.


  ==> Post-Iterations <==

    Orbital Energies [Eh]
    ---------------------

    Doubly Occupied:                                                      

       1A    -10.225067     2A    -10.216374     3A    -10.216343  
       4A    -10.216163     5A    -10.215242     6A    -10.215228  
       7A    -10.208992     8A     -0.855168     9A     -0.780005  
      10A     -0.754803    11A     -0.686253    12A     -0.619736  
      13A     -0.594546    14A     -0.562605    15A     -0.489254  
      16A     -0.461588    17A     -0.452488    18A     -0.446210  
      19A     -0.425429    20A     -0.395278    21A     -0.388180  
      22A     -0.377960    23A     -0.361587    24A     -0.349091  
      25A     -0.339181    26A     -0.321714    27A     -0.308102  
      28A     -0.303619  

    Virtual:                                                              

      29A      0.066161    30A      0.082025    31A      0.089040  
      32A      0.102499    33A      0.135234    34A      0.142181  
      35A      0.143222    36A      0.148025    37A      0.161616  
      38A      0.161827    39A      0.164290    40A      0.173241  
      41A      0.184676    42A      0.187568    43A      0.214529  
      44A      0.250776    45A      0.251266    46A      0.269014  
      47A      0.269610    48A      0.280224    49A      0.286788  
      50A      0.437526    51A      0.438516    52A      0.443267  
      53A      0.456726    54A      0.464600    55A      0.482724  
      56A      0.489128    57A      0.579554    58A      0.610685  
      59A      0.635260    60A      0.657216    61A      0.663046  
      62A      0.677213    63A      0.683040    64A      0.694619  
      65A      0.701835    66A      0.708648    67A      0.722815  
      68A      0.725165    69A      0.725309    70A      0.729732  
      71A      0.741046    72A      0.741634    73A      0.745661  
      74A      0.755421    75A      0.755961    76A      0.762665  
      77A      0.770710    78A      0.779407    79A      0.787716  
      80A      0.792684    81A      0.795227    82A      0.842093  
      83A      0.914776    84A      0.931629    85A      0.989840  
      86A      1.088985    87A      1.145513    88A      1.206604  
      89A      1.210147    90A      1.315111    91A      1.322800  
      92A      1.376758    93A      1.379384    94A      1.528338  
      95A      1.686131    96A      1.720603    97A      1.733437  
      98A      1.757871    99A      1.868926   100A      1.884661  
     101A      1.893155   102A      1.902208   103A      1.944184  
     104A      1.961383   105A      1.971646   106A      1.997704  
     107A      2.042523   108A      2.088996   109A      2.114784  
     110A      2.156197   111A      2.186659   112A      2.189338  
     113A      2.239319   114A      2.299335   115A      2.339579  
     116A      2.344479   117A      2.366374   118A      2.416723  
     119A      2.420752   120A      2.507920   121A      2.633894  
     122A      2.658951   123A      2.711591   124A      2.714783  
     125A      2.796009   126A      2.798248  

    Final Occupation by Irrep:
              A 
    DOCC [    28 ]

  @DF-RKS Final Energy:  -274.63018266991065

   => Energetics <=

    Nuclear Repulsion Energy =            329.9474262421851449
    One-Electron Energy =               -1022.3026883424915923
    Two-Electron Energy =                 450.3244456285178785
    DFT Exchange-Correlation Energy =     -32.5993661981221834
    Empirical Dispersion Energy =           0.0000000000000000
    VV10 Nonlocal Energy =                  0.0000000000000000
    Total Energy =                       -274.6301826699107096

Computation Completed

  //>>>>>>>>>>>>>>>>>>>>>>>>>>>>>>>>>>>//
  //                PBE0               //
  //<<<<<<<<<<<<<<<<<<<<<<<<<<<<<<<<<<<//

   => Loading Basis Set <=

    Name: DEF2-QZVP
    Role: ORBITAL
    Keyword: BASIS
    atoms 1-7  entry C          line   194 file /usr/share/psi4/basis/def2-qzvp.gbs 
    atoms 8-21 entry H          line    15 file /usr/share/psi4/basis/def2-qzvp.gbs 


         ---------------------------------------------------------
                                   SCF
               by Justin Turney, Rob Parrish, Andy Simmonett
                          and Daniel G. A. Smith
                              RKS Reference
                        4 Threads,   3814 MiB Core
         ---------------------------------------------------------

  ==> Geometry <==

    Molecular point group: c1
    Full point group: C1

    Geometry (in Angstrom), charge = 0, multiplicity = 1:

       Center              X                  Y                   Z               Mass       
    ------------   -----------------  -----------------  -----------------  -----------------
         C            1.023463530092    -0.000774258409    -0.318873760795    12.000000000000
         C            0.301707304192    -1.251227205009     0.175466450605    12.000000000000
         C            0.301540733492     1.252176005391     0.168855093105    12.000000000000
         C           -1.171668000608    -1.257043268309    -0.209897869595    12.000000000000
         C           -1.171834014308     1.255761087191    -0.216537695795    12.000000000000
         C           -1.878423221208     0.000608903591     0.277586001005    12.000000000000
         C            2.486442141892     0.000408861291     0.092108601405    12.000000000000
         H            0.975729246692    -0.003677939809    -1.417799015895     1.007825032230
         H            0.390938047192    -1.297922894609     1.269585988505     1.007825032230
         H            0.800165853292    -2.145847918809    -0.212896535695     1.007825032230
         H            0.799881500992     2.144800180991    -0.224224506795     1.007825032230
         H            0.390761319692     1.304659603191     1.262712835405     1.007825032230
         H           -1.663466076208    -2.149377294309     0.189336404105     1.007825032230
         H           -1.258019207108    -1.317797637309    -1.302253063195     1.007825032230
         H           -1.258192075808     1.310730769791    -1.309199096595     1.007825032230
         H           -1.663751467408     2.150127429891     0.177974082605     1.007825032230
         H           -2.923872470808    -0.000313728709    -0.045681144095     1.007825032230
         H           -1.891589520508     0.003507569291     1.375026420105     1.007825032230
         H            3.006962806592     0.883388503191    -0.288585721495     1.007825032230
         H            2.582472124792     0.003242641291     1.182610749305     1.007825032230
         H            3.007103849592    -0.884449166609    -0.284004862295     1.007825032230

  Running in c1 symmetry.

  Rotational constants: A =      0.14174  B =      0.07358  C =      0.05347 [cm^-1]
  Rotational constants: A =   4249.12123  B =   2205.73008  C =   1602.93701 [MHz]
  Nuclear repulsion =  329.947426242185145

  Charge       = 0
  Multiplicity = 1
  Electrons    = 56
  Nalpha       = 28
  Nbeta        = 28

  ==> Algorithm <==

  SCF Algorithm Type is DF.
  DIIS enabled.
  MOM disabled.
  Fractional occupation disabled.
  Guess Type is SAD.
  Energy threshold   = 1.00e-06
  Density threshold  = 1.00e-06
  Integral threshold = 0.00e+00

  ==> Primary Basis <==

  Basis Set: DEF2-QZVP
    Blend: DEF2-QZVP
    Number of shells: 259
    Number of basis function: 819
    Number of Cartesian functions: 994
    Spherical Harmonics?: true
    Max angular momentum: 4

  ==> DFT Potential <==

   => Composite Functional: PBE0 <= 

    PBE0 Hyb-GGA Exchange-Correlation Functional

    C. Adamo and V. Barone, J. Chem. Phys. 110, 6158 (1999)
    M. Ernzerhof and G. E. Scuseria, J. Chem. Phys. 110, 5029 (1999)

    Deriv               =              1
    GGA                 =           TRUE
    Meta                =          FALSE

    Exchange Hybrid     =           TRUE
    MP2 Hybrid          =          FALSE

   => Exchange Functionals <=

    0.7500   Perdew, Burke & Ernzerhof

   => Exact (HF) Exchange <=

    0.2500               HF 

   => Correlation Functionals <=

    1.0000   Perdew, Burke & Ernzerhof

   => Molecular Quadrature <=

    Radial Scheme          =       TREUTLER
    Pruning Scheme         =           FLAT
    Nuclear Scheme         =       TREUTLER

    BS radius alpha        =              1
    Pruning alpha          =              1
    Radial Points          =             75
    Spherical Points       =            302
    Total Points           =         474041
    Total Blocks           =           3461
    Max Points             =            256
    Max Functions          =            715

   => Loading Basis Set <=

    Name: (DEF2-QZVP AUX)
    Role: JKFIT
    Keyword: DF_BASIS_SCF
    atoms 1-7  entry C          line   203 file /usr/share/psi4/basis/def2-qzvp-jkfit.gbs 
    atoms 8-21 entry H          line    23 file /usr/share/psi4/basis/def2-qzvp-jkfit.gbs 


  Computing basis projection from DEF2-SV(P) to DEF2-QZVP

  ==> Pre-Iterations <==

   -------------------------------------------------------
    Irrep   Nso     Nmo     Nalpha   Nbeta   Ndocc  Nsocc
   -------------------------------------------------------
     A        819     819       0       0       0       0
   -------------------------------------------------------
    Total     819     819      28      28      28       0
   -------------------------------------------------------

  ==> Integral Setup <==

  ==> DiskDFJK: Density-Fitted J/K Matrices <==

    J tasked:                  Yes
    K tasked:                  Yes
    wK tasked:                  No
    OpenMP threads:              4
    Integrals threads:           4
    Memory [MiB]:             1815
    Algorithm:                Disk
    Integral Cache:           NONE
    Schwarz Cutoff:          1E-12
    Fitting Condition:       1E-10

   => Auxiliary Basis Set <=

  Basis Set: (DEF2-QZVP AUX)
    Blend: DEF2-QZVP-JKFIT
    Number of shells: 259
    Number of basis function: 777
    Number of Cartesian functions: 903
    Spherical Harmonics?: true
    Max angular momentum: 4

  Cached 16.7% of DFT collocation blocks in 1.081 [GiB].

  Minimum eigenvalue in the overlap matrix is 8.7467224707E-06.
  Using Symmetric Orthogonalization.

  SCF Guess: Orbitals guess was supplied from a previous computation.

  ==> Iterations <==

                           Total Energy        Delta E     RMS |[F,P]|

   @DF-RKS iter   0:  -274.74442953282090   -2.74744e+02   3.68590e-03 
   @DF-RKS iter   1:  -274.96617296808580   -2.21743e-01   5.63609e-05 DIIS
   @DF-RKS iter   2:  -274.96615264457836    2.03235e-05   5.38655e-05 DIIS
   @DF-RKS iter   3:  -274.96710223222647   -9.49588e-04   1.18624e-05 DIIS
   @DF-RKS iter   4:  -274.96714419509510   -4.19629e-05   3.55689e-06 DIIS
   @DF-RKS iter   5:  -274.96714799069468   -3.79560e-06   5.40985e-07 DIIS
   @DF-RKS iter   6:  -274.96714807690660   -8.62119e-08   9.91645e-08 DIIS
  Energy and wave function converged.


  ==> Post-Iterations <==

    Orbital Energies [Eh]
    ---------------------

    Doubly Occupied:                                                      

       1A    -10.219332     2A    -10.211743     3A    -10.211638  
       4A    -10.211317     5A    -10.210356     6A    -10.210349  
       7A    -10.204831     8A     -0.860378     9A     -0.785913  
      10A     -0.760718    11A     -0.692150    12A     -0.624197  
      13A     -0.598984    14A     -0.564567    15A     -0.487660  
      16A     -0.459763    17A     -0.450633    18A     -0.446496  
      19A     -0.423742    20A     -0.393415    21A     -0.385816  
      22A     -0.375706    23A     -0.359367    24A     -0.346924  
      25A     -0.337087    26A     -0.320347    27A     -0.305900  
      28A     -0.301486  

    Virtual:                                                              

      29A      0.031577    30A      0.038422    31A      0.042692  
      32A      0.050398    33A      0.074211    34A      0.082952  
      35A      0.084091    36A      0.088688    37A      0.092859  
      38A      0.103875    39A      0.112352    40A      0.113988  
      41A      0.126907    42A      0.127159    43A      0.144836  
      44A      0.149604    45A      0.156034    46A      0.170388  
      47A      0.186376    48A      0.193569    49A      0.197085  
      50A      0.202912    51A      0.207147    52A      0.218369  
      53A      0.222289    54A      0.239180    55A      0.250373  
      56A      0.260418    57A      0.261569    58A      0.268138  
      59A      0.275450    60A      0.292185    61A      0.292443  
      62A      0.305986    63A      0.310332    64A      0.313732  
      65A      0.322967    66A      0.324223    67A      0.329184  
      68A      0.329468    69A      0.339669    70A      0.344731  
      71A      0.347577    72A      0.348419    73A      0.352195  
      74A      0.360976    75A      0.370880    76A      0.380113  
      77A      0.382649    78A      0.384755    79A      0.386305  
      80A      0.400540    81A      0.406562    82A      0.415179  
      83A      0.478599    84A      0.500448    85A      0.510455  
      86A      0.528553    87A      0.533078    88A      0.551558  
      89A      0.552165    90A      0.556347    91A      0.559968  
      92A      0.574144    93A      0.579680    94A      0.588342  
      95A      0.601072    96A      0.604997    97A      0.619229  
      98A      0.624088    99A      0.624557   100A      0.631319  
     101A      0.636124   102A      0.645131   103A      0.652906  
     104A      0.658368   105A      0.660210   106A      0.685045  
     107A      0.698174   108A      0.733652   109A      0.756314  
     110A      0.771378   111A      0.787609   112A      0.789732  
     113A      0.812261   114A      0.813078   115A      0.822608  
     116A      0.827647   117A      0.828724   118A      0.836335  
     119A      0.838050   120A      0.843816   121A      0.844523  
     122A      0.853189   123A      0.854756   124A      0.859076  
     125A      0.873995   126A      0.878419   127A      0.880337  
     128A      0.892899   129A      0.895725   130A      0.897311  
     131A      0.904001   132A      0.916645   133A      0.930052  
     134A      0.935828   135A      0.940209   136A      0.953797  
     137A      0.955859   138A      0.975948   139A      0.977543  
     140A      0.990524   141A      1.007868   142A      1.008901  
     143A      1.014495   144A      1.021700   145A      1.041556  
     146A      1.041703   147A      1.076494   148A      1.078255  
     149A      1.087800   150A      1.093196   151A      1.104794  
     152A      1.116860   153A      1.123105   154A      1.133675  
     155A      1.135475   156A      1.163191   157A      1.166475  
     158A      1.170595   159A      1.182163   160A      1.186988  
     161A      1.198208   162A      1.218637   163A      1.225782  
     164A      1.238988   165A      1.242852   166A      1.258073  
     167A      1.286160   168A      1.300209   169A      1.318378  
     170A      1.336972   171A      1.341639   172A      1.347937  
     173A      1.361492   174A      1.377758   175A      1.402461  
     176A      1.414033   177A      1.433509   178A      1.442731  
     179A      1.444657   180A      1.452940   181A      1.459849  
     182A      1.475641   183A      1.482871   184A      1.496338  
     185A      1.509887   186A      1.521061   187A      1.541117  
     188A      1.543459   189A      1.551182   190A      1.576613  
     191A      1.580984   192A      1.585188   193A      1.598480  
     194A      1.606577   195A      1.629452   196A      1.635181  
     197A      1.661621   198A      1.697757   199A      1.698527  
     200A      1.734925   201A      1.736050   202A      1.751827  
     203A      1.772137   204A      1.774731   205A      1.790407  
     206A      1.795162   207A      1.821799   208A      1.834339  
     209A      1.849425   210A      1.875403   211A      1.896653  
     212A      1.907115   213A      1.925361   214A      1.943914  
     215A      1.953047   216A      1.955196   217A      1.973715  
     218A      1.979785   219A      1.981424   220A      1.987002  
     221A      2.009310   222A      2.009567   223A      2.018423  
     224A      2.023259   225A      2.048816   226A      2.053038  
     227A      2.063696   228A      2.064029   229A      2.081762  
     230A      2.085940   231A      2.086475   232A      2.104033  
     233A      2.106537   234A      2.125865   235A      2.142635  
     236A      2.145739   237A      2.156575   238A      2.164774  
     239A      2.173315   240A      2.191494   241A      2.191630  
     242A      2.200153   243A      2.217890   244A      2.233739  
     245A      2.234584   246A      2.237404   247A      2.237983  
     248A      2.244723   249A      2.269528   250A      2.271067  
     251A      2.282893   252A      2.292474   253A      2.296945  
     254A      2.308989   255A      2.322170   256A      2.326814  
     257A      2.328313   258A      2.344396   259A      2.347545  
     260A      2.358203   261A      2.361631   262A      2.363987  
     263A      2.398084   264A      2.405031   265A      2.433522  
     266A      2.438917   267A      2.454175   268A      2.470006  
     269A      2.488260   270A      2.500118   271A      2.501157  
     272A      2.514307   273A      2.514656   274A      2.529285  
     275A      2.531932   276A      2.535605   277A      2.577721  
     278A      2.582335   279A      2.582737   280A      2.584601  
     281A      2.607019   282A      2.618988   283A      2.630865  
     284A      2.631678   285A      2.643786   286A      2.652675  
     287A      2.654745   288A      2.663827   289A      2.691551  
     290A      2.692221   291A      2.696807   292A      2.704426  
     293A      2.725751   294A      2.732048   295A      2.738207  
     296A      2.742149   297A      2.769664   298A      2.786937  
     299A      2.809188   300A      2.817224   301A      2.817568  
     302A      2.826413   303A      2.844691   304A      2.850289  
     305A      2.874067   306A      2.875850   307A      2.881049  
     308A      2.888197   309A      2.916372   310A      2.919190  
     311A      2.919973   312A      2.928843   313A      2.934076  
     314A      2.941060   315A      2.944676   316A      2.960395  
     317A      2.967317   318A      2.971070   319A      2.989170  
     320A      2.996132   321A      3.004257   322A      3.013274  
     323A      3.016212   324A      3.024504   325A      3.038269  
     326A      3.049724   327A      3.060684   328A      3.073076  
     329A      3.083302   330A      3.087378   331A      3.093758  
     332A      3.099430   333A      3.112242   334A      3.126918  
     335A      3.127610   336A      3.157381   337A      3.180898  
     338A      3.193867   339A      3.207357   340A      3.211043  
     341A      3.234582   342A      3.235411   343A      3.254246  
     344A      3.261933   345A      3.293897   346A      3.301552  
     347A      3.323001   348A      3.341948   349A      3.346538  
     350A      3.346566   351A      3.364257   352A      3.377550  
     353A      3.385307   354A      3.387142   355A      3.406666  
     356A      3.410666   357A      3.428192   358A      3.442727  
     359A      3.451953   360A      3.484848   361A      3.502793  
     362A      3.514078   363A      3.521883   364A      3.542609  
     365A      3.556729   366A      3.563584   367A      3.586520  
     368A      3.618963   369A      3.639242   370A      3.654587  
     371A      3.662386   372A      3.669123   373A      3.687113  
     374A      3.689557   375A      3.711104   376A      3.731726  
     377A      3.741669   378A      3.743732   379A      3.762987  
     380A      3.785608   381A      3.798807   382A      3.812370  
     383A      3.825060   384A      3.830378   385A      3.844682  
     386A      3.845693   387A      3.878156   388A      3.882374  
     389A      3.896862   390A      3.925576   391A      3.935665  
     392A      3.949336   393A      3.954116   394A      3.978405  
     395A      3.984710   396A      3.989600   397A      4.002351  
     398A      4.007338   399A      4.032672   400A      4.033734  
     401A      4.054383   402A      4.061559   403A      4.069789  
     404A      4.078713   405A      4.134734   406A      4.191386  
     407A      4.195545   408A      4.214695   409A      4.244889  
     410A      4.249134   411A      4.270739   412A      4.274749  
     413A      4.335136   414A      4.411080   415A      4.411110  
     416A      4.437456   417A      4.535683   418A      4.546567  
     419A      4.633371   420A      4.673594   421A      4.795320  
     422A      4.826387   423A      4.836596   424A      4.860291  
     425A      4.883679   426A      4.885037   427A      4.915727  
     428A      4.984734   429A      5.087761   430A      5.095696  
     431A      5.147194   432A      5.148838   433A      5.168626  
     434A      5.189613   435A      5.205214   436A      5.252357  
     437A      5.266314   438A      5.386284   439A      5.397926  
     440A      5.419453   441A      5.480760   442A      5.483325  
     443A      5.516148   444A      5.518361   445A      5.535225  
     446A      5.542978   447A      5.557456   448A      5.590798  
     449A      5.654058   450A      5.663848   451A      5.684386  
     452A      5.700181   453A      5.705196   454A      5.733906  
     455A      5.751777   456A      5.762679   457A      5.763783  
     458A      5.781047   459A      5.796603   460A      5.816310  
     461A      5.818253   462A      5.829788   463A      5.838330  
     464A      5.841791   465A      5.849880   466A      5.857585  
     467A      5.892373   468A      5.893132   469A      5.904419  
     470A      5.904568   471A      5.923043   472A      5.944577  
     473A      5.959917   474A      5.961337   475A      5.971145  
     476A      5.971230   477A      5.984733   478A      6.001050  
     479A      6.024621   480A      6.046125   481A      6.057892  
     482A      6.068683   483A      6.074268   484A      6.086953  
     485A      6.088637   486A      6.095164   487A      6.101696  
     488A      6.119692   489A      6.126888   490A      6.131120  
     491A      6.132057   492A      6.141967   493A      6.160043  
     494A      6.171812   495A      6.192423   496A      6.196561  
     497A      6.207938   498A      6.214602   499A      6.231559  
     500A      6.236612   501A      6.244144   502A      6.246586  
     503A      6.273749   504A      6.285074   505A      6.286217  
     506A      6.298323   507A      6.311981   508A      6.318436  
     509A      6.333048   510A      6.338730   511A      6.347772  
     512A      6.351208   513A      6.355793   514A      6.363800  
     515A      6.371796   516A      6.381029   517A      6.405822  
     518A      6.413645   519A      6.423218   520A      6.425401  
     521A      6.442968   522A      6.447135   523A      6.474079  
     524A      6.475145   525A      6.482625   526A      6.485045  
     527A      6.485913   528A      6.513811   529A      6.529667  
     530A      6.535577   531A      6.539085   532A      6.553402  
     533A      6.567632   534A      6.576018   535A      6.590924  
     536A      6.637795   537A      6.650437   538A      6.658402  
     539A      6.659875   540A      6.671008   541A      6.679715  
     542A      6.682636   543A      6.719697   544A      6.722752  
     545A      6.728889   546A      6.752590   547A      6.775052  
     548A      6.791458   549A      6.797499   550A      6.807654  
     551A      6.809061   552A      6.828087   553A      6.844681  
     554A      6.854708   555A      6.863078   556A      6.884279  
     557A      6.885791   558A      6.898293   559A      6.908107  
     560A      6.918412   561A      6.937449   562A      6.954617  
     563A      6.964679   564A      6.994076   565A      6.995534  
     566A      6.999425   567A      7.011725   568A      7.051028  
     569A      7.055776   570A      7.060275   571A      7.084081  
     572A      7.093949   573A      7.100735   574A      7.107820  
     575A      7.135020   576A      7.138916   577A      7.148148  
     578A      7.171542   579A      7.189769   580A      7.214077  
     581A      7.227977   582A      7.248323   583A      7.261945  
     584A      7.270408   585A      7.281296   586A      7.314151  
     587A      7.323049   588A      7.343746   589A      7.366435  
     590A      7.374240   591A      7.390424   592A      7.406672  
     593A      7.445444   594A      7.451313   595A      7.462965  
     596A      7.468208   597A      7.473840   598A      7.491874  
     599A      7.509254   600A      7.514620   601A      7.528838  
     602A      7.537101   603A      7.557178   604A      7.579187  
     605A      7.594683   606A      7.600397   607A      7.604832  
     608A      7.628654   609A      7.632491   610A      7.644555  
     611A      7.672421   612A      7.696339   613A      7.698886  
     614A      7.702070   615A      7.709570   616A      7.734238  
     617A      7.739552   618A      7.750179   619A      7.753423  
     620A      7.759886   621A      7.777826   622A      7.798858  
     623A      7.799501   624A      7.809558   625A      7.819713  
     626A      7.846799   627A      7.854877   628A      7.858380  
     629A      7.863272   630A      7.872872   631A      7.876301  
     632A      7.918111   633A      7.923631   634A      7.935949  
     635A      7.938305   636A      7.950106   637A      7.951065  
     638A      7.963218   639A      7.972194   640A      7.987650  
     641A      7.991266   642A      8.009964   643A      8.029543  
     644A      8.033499   645A      8.039074   646A      8.047092  
     647A      8.050832   648A      8.070892   649A      8.087028  
     650A      8.105017   651A      8.116703   652A      8.121844  
     653A      8.131120   654A      8.156932   655A      8.158709  
     656A      8.161797   657A      8.163450   658A      8.186733  
     659A      8.216553   660A      8.228346   661A      8.250137  
     662A      8.262001   663A      8.264835   664A      8.277927  
     665A      8.288883   666A      8.304129   667A      8.317254  
     668A      8.317936   669A      8.367037   670A      8.367256  
     671A      8.376629   672A      8.405555   673A      8.414235  
     674A      8.446826   675A      8.456800   676A      8.472895  
     677A      8.473552   678A      8.495065   679A      8.499784  
     680A      8.515253   681A      8.521397   682A      8.538109  
     683A      8.545893   684A      8.549866   685A      8.563117  
     686A      8.566355   687A      8.579887   688A      8.583589  
     689A      8.587617   690A      8.590737   691A      8.609965  
     692A      8.625209   693A      8.631143   694A      8.647511  
     695A      8.647878   696A      8.663349   697A      8.679874  
     698A      8.687865   699A      8.696549   700A      8.710559  
     701A      8.712588   702A      8.741555   703A      8.745412  
     704A      8.754659   705A      8.783013   706A      8.801635  
     707A      8.814869   708A      8.832912   709A      8.838245  
     710A      8.844486   711A      8.855242   712A      8.868985  
     713A      8.894949   714A      8.934697   715A      8.971482  
     716A      8.972468   717A      8.988870   718A      8.997191  
     719A      9.004940   720A      9.035684   721A      9.038308  
     722A      9.051536   723A      9.087400   724A      9.104444  
     725A      9.118499   726A      9.142529   727A      9.146095  
     728A      9.161619   729A      9.164729   730A      9.201019  
     731A      9.203958   732A      9.224540   733A      9.231809  
     734A      9.245299   735A      9.276101   736A      9.287062  
     737A      9.324393   738A      9.344862   739A      9.350620  
     740A      9.374285   741A      9.425127   742A      9.485382  
     743A      9.520025   744A      9.528396   745A      9.658235  
     746A      9.675965   747A      9.685603   748A      9.699521  
     749A      9.719076   750A      9.727443   751A      9.737887  
     752A      9.777645   753A      9.779758   754A      9.801544  
     755A      9.808990   756A      9.836856   757A      9.846245  
     758A      9.865787   759A      9.898249   760A      9.913575  
     761A      9.934229   762A      9.960432   763A      9.978831  
     764A      9.983893   765A     10.024454   766A     10.059054  
     767A     10.083314   768A     10.088818   769A     10.130471  
     770A     10.131245   771A     10.164037   772A     10.186808  
     773A     10.212981   774A     10.238359   775A     10.252424  
     776A     10.261728   777A     10.273164   778A     10.277347  
     779A     10.292666   780A     10.340842   781A     10.349272  
     782A     10.359864   783A     10.393590   784A     10.430157  
     785A     10.458936   786A     10.468087   787A     10.542302  
     788A     10.626578   789A     10.681039   790A     10.727574  
     791A     10.742155   792A     12.180388   793A     12.300503  
     794A     12.393537   795A     12.466012   796A     12.486366  
     797A     12.499571   798A     12.545896   799A     13.049774  
     800A     13.147179   801A     13.198511   802A     13.210385  
     803A     13.222480   804A     13.271844   805A     13.348645  
     806A     29.078698   807A     29.158138   808A     29.175200  
     809A     29.204705   810A     29.217558   811A     29.218078  
     812A     29.293791   813A    148.314128   814A    148.385965  
     815A    148.403003   816A    148.464515   817A    148.483707  
     818A    148.514559   819A    148.559061  

    Final Occupation by Irrep:
              A 
    DOCC [    28 ]

  @DF-RKS Final Energy:  -274.96714807690660

   => Energetics <=

    Nuclear Repulsion Energy =            329.9474262421851449
    One-Electron Energy =               -1022.9842728675164381
    Two-Electron Energy =                 450.7254316734760096
    DFT Exchange-Correlation Energy =     -32.6557331250513556
    Empirical Dispersion Energy =           0.0000000000000000
    VV10 Nonlocal Energy =                  0.0000000000000000
    Total Energy =                       -274.9671480769065965

Computation Completed


Properties will be evaluated at   0.000000,   0.000000,   0.000000 [a0]

Properties computed using the SCF density matrix

  Nuclear Dipole Moment: [e a0]
     X:     1.2141      Y:     0.0010      Z:     0.3493

  Electronic Dipole Moment: [e a0]
     X:    -1.2517      Y:    -0.0011      Z:    -0.3827

  Dipole Moment: [e a0]
     X:    -0.0376      Y:    -0.0001      Z:    -0.0334     Total:     0.0503

  Dipole Moment: [D]
     X:    -0.0955      Y:    -0.0002      Z:    -0.0848     Total:     0.1278


*** tstop() called on thinkpad at Sat Jul 10 14:26:34 2021
Module time:
	user time   =     494.42 seconds =       8.24 minutes
	system time =      12.00 seconds =       0.20 minutes
	total time  =        145 seconds =       2.42 minutes
Total time:
	user time   =     494.42 seconds =       8.24 minutes
	system time =      12.00 seconds =       0.20 minutes
	total time  =        145 seconds =       2.42 minutes

    Psi4 stopped on: Saturday, 10 July 2021 02:26PM
    Psi4 wall time for execution: 0:02:24.94

*** Psi4 exiting successfully. Buy a developer a beer!
