
    -----------------------------------------------------------------------
          Psi4: An Open-Source Ab Initio Electronic Structure Package
                               Psi4 1.3.2 release

                         Git: Rev {} zzzzzzz 


    R. M. Parrish, L. A. Burns, D. G. A. Smith, A. C. Simmonett,
    A. E. DePrince III, E. G. Hohenstein, U. Bozkaya, A. Yu. Sokolov,
    R. Di Remigio, R. M. Richard, J. F. Gonthier, A. M. James,
    H. R. McAlexander, A. Kumar, M. Saitow, X. Wang, B. P. Pritchard,
    P. Verma, H. F. Schaefer III, K. Patkowski, R. A. King, E. F. Valeev,
    F. A. Evangelista, J. M. Turney, T. D. Crawford, and C. D. Sherrill,
    J. Chem. Theory Comput. 13(7) pp 3185--3197 (2017).
    (doi: 10.1021/acs.jctc.7b00174)


                         Additional Contributions by
    P. Kraus, H. Kruse, M. H. Lechner, M. C. Schieber, R. A. Shaw,
    A. Alenaizan, R. Galvelis, Z. L. Glick, S. Lehtola, and J. P. Misiewicz

    -----------------------------------------------------------------------


    Psi4 started on: Tuesday, 18 January 2022 09:43PM

    Process ID: 834277
    Host:       lenovo
    PSIDATADIR: /usr/share/psi4
    Memory:     500.0 MiB
    Threads:    4
    
  ==> Input File <==

--------------------------------------------------------------------------
# PBE0/def2-TZVP calculation on methylcyclohexane conformer #2 

memory 4 gb

molecule {
	    C    -0.9722110106  -0.0327178145  -0.3317394209
	    C    -0.3230575991   1.3051763356   0.0549465016
	    C    -0.2799358137  -1.1703549653   0.4084020749
	    C     1.1707491624   1.1735533229   0.3780596124
	    C     1.1865243780  -1.3080141347  -0.0202102127
	    C     1.8009202197   0.0403620054  -0.4174616034
	    C    -2.4717798740  -0.0105506963  -0.0908392374
	    H    -0.8087844643  -0.1950236872  -1.4056295336
	    H    -0.8495212096   1.7199328933   0.9221690658
	    H    -0.4695454065   2.0218373804  -0.7599221104
	    H    -0.8113728409  -2.1127804385   0.2447639560
	    H    -0.3428586988  -0.9712230168   1.4854308307
	    H     1.3043952140   0.9702107563   1.4465484474
	    H     1.6840387395   2.1191808048   0.1839931571
	    H     1.2636624230  -2.0050932080  -0.8602184482
	    H     1.7632973914  -1.7516361470   0.7971908469
	    H     1.6407454705   0.2251060645  -1.4855926815
	    H     2.8844283912   0.0183001103  -0.2730171679
	    H    -2.6900359915   0.0903337794   0.9772603697
	    H    -2.9448589677   0.8307839411  -0.6052679767
	    H    -2.9477420718  -0.9296150780  -0.4433568897
}

# It is beneficial to initialize larger-basis calculations with
# a small reasonable basis; use def2-SV(P) for this purpose
set basis_guess def2-SV(P)
set basis def2-TZVP
energy('pbe0')
--------------------------------------------------------------------------

  Memory set to   3.725 GiB by Python driver.

*** tstart() called on lenovo
*** at Tue Jan 18 21:43:34 2022


  //>>>>>>>>>>>>>>>>>>>>>>>>>>>>>>>>>>>//
  //    Guess SCF, DEF2-SV(P) Basis    //
  //<<<<<<<<<<<<<<<<<<<<<<<<<<<<<<<<<<<//

   => Loading Basis Set <=

    Name: DEF2-SV(P)
    Role: ORBITAL
    Keyword: BASIS
    atoms 1-7  entry C          line    88 file /usr/share/psi4/basis/def2-sv_p_.gbs 
    atoms 8-21 entry H          line    15 file /usr/share/psi4/basis/def2-sv_p_.gbs 


         ---------------------------------------------------------
                           SCF Castup computation                  
         ---------------------------------------------------------
                                   SCF
               by Justin Turney, Rob Parrish, Andy Simmonett
                          and Daniel G. A. Smith
                              RKS Reference
                        4 Threads,   3814 MiB Core
         ---------------------------------------------------------

  ==> Geometry <==

    Molecular point group: c1
    Full point group: C1

    Geometry (in Angstrom), charge = 0, multiplicity = 1:

       Center              X                  Y                   Z               Mass       
    ------------   -----------------  -----------------  -----------------  -----------------
         C           -0.972211010586    -0.032717814511    -0.331739420902    12.000000000000
         C           -0.323057599086     1.305176335589     0.054946501598    12.000000000000
         C           -0.279935813686    -1.170354965311     0.408402074898    12.000000000000
         C            1.170749162414     1.173553322889     0.378059612398    12.000000000000
         C            1.186524378014    -1.308014134711    -0.020210212702    12.000000000000
         C            1.800920219714     0.040362005389    -0.417461603402    12.000000000000
         C           -2.471779873986    -0.010550696311    -0.090839237402    12.000000000000
         H           -0.808784464286    -0.195023687211    -1.405629533602     1.007825032230
         H           -0.849521209586     1.719932893289     0.922169065798     1.007825032230
         H           -0.469545406486     2.021837380389    -0.759922110402     1.007825032230
         H           -0.811372840886    -2.112780438511     0.244763955998     1.007825032230
         H           -0.342858698786    -0.971223016811     1.485430830698     1.007825032230
         H            1.304395214014     0.970210756289     1.446548447398     1.007825032230
         H            1.684038739514     2.119180804789     0.183993157098     1.007825032230
         H            1.263662423014    -2.005093208011    -0.860218448202     1.007825032230
         H            1.763297391414    -1.751636147011     0.797190846898     1.007825032230
         H            1.640745470514     0.225106064489    -1.485592681502     1.007825032230
         H            2.884428391214     0.018300110289    -0.273017167902     1.007825032230
         H           -2.690035991486     0.090333779389     0.977260369698     1.007825032230
         H           -2.944858967686     0.830783941089    -0.605267976702     1.007825032230
         H           -2.947742071786    -0.929615078011    -0.443356889702     1.007825032230

  Running in c1 symmetry.

  Rotational constants: A =      0.13921  B =      0.07423  C =      0.05482 [cm^-1]
  Rotational constants: A =   4173.37434  B =   2225.48720  C =   1643.38170 [MHz]
  Nuclear repulsion =  330.300707310715211

  Charge       = 0
  Multiplicity = 1
  Electrons    = 56
  Nalpha       = 28
  Nbeta        = 28

  ==> Algorithm <==

  SCF Algorithm Type is DF.
  DIIS enabled.
  MOM disabled.
  Fractional occupation disabled.
  Guess Type is SAD.
  Energy threshold   = 1.00e-06
  Density threshold  = 1.00e-06
  Integral threshold = 0.00e+00

  ==> Primary Basis <==

  Basis Set: DEF2-SV(P)
    Blend: DEF2-SV(P)
    Number of shells: 70
    Number of basis function: 126
    Number of Cartesian functions: 133
    Spherical Harmonics?: true
    Max angular momentum: 2

  ==> DFT Potential <==

   => Composite Functional: PBE0 <= 

    PBE0 Hyb-GGA Exchange-Correlation Functional

    C. Adamo and V. Barone, J. Chem. Phys. 110, 6158 (1999)
    M. Ernzerhof and G. E. Scuseria, J. Chem. Phys. 110, 5029 (1999)

    Deriv               =              1
    GGA                 =           TRUE
    Meta                =          FALSE

    Exchange Hybrid     =           TRUE
    MP2 Hybrid          =          FALSE

   => Exchange Functionals <=

    0.7500   Perdew, Burke & Ernzerhof

   => Exact (HF) Exchange <=

    0.2500               HF 

   => Correlation Functionals <=

    1.0000   Perdew, Burke & Ernzerhof

   => Molecular Quadrature <=

    Radial Scheme          =       TREUTLER
    Pruning Scheme         =           FLAT
    Nuclear Scheme         =       TREUTLER

    BS radius alpha        =              1
    Pruning alpha          =              1
    Radial Points          =             75
    Spherical Points       =            302
    Total Points           =         469437
    Total Blocks           =           3446
    Max Points             =            256
    Max Functions          =            125

   => Loading Basis Set <=

    Name: (DEF2-SV(P) AUX)
    Role: JKFIT
    Keyword: DF_BASIS_SCF
    atoms 1-7  entry C          line   203 file /usr/share/psi4/basis/def2-sv_p_-jkfit.gbs 
    atoms 8-21 entry H          line    23 file /usr/share/psi4/basis/def2-sv_p_-jkfit.gbs 

  ==> Pre-Iterations <==

   -------------------------------------------------------
    Irrep   Nso     Nmo     Nalpha   Nbeta   Ndocc  Nsocc
   -------------------------------------------------------
     A        126     126       0       0       0       0
   -------------------------------------------------------
    Total     126     126      28      28      28       0
   -------------------------------------------------------

  ==> Integral Setup <==

  ==> DiskDFJK: Density-Fitted J/K Matrices <==

    J tasked:                  Yes
    K tasked:                  Yes
    wK tasked:                  No
    OpenMP threads:              4
    Integrals threads:           4
    Memory [MiB]:             1464
    Algorithm:                Core
    Integral Cache:           NONE
    Schwarz Cutoff:          1E-12
    Fitting Condition:       1E-10

   => Auxiliary Basis Set <=

  Basis Set: (DEF2-SV(P) AUX)
    Blend: DEF2-SV_P_-JKFIT
    Number of shells: 259
    Number of basis function: 777
    Number of Cartesian functions: 903
    Spherical Harmonics?: true
    Max angular momentum: 4

  Cached 100.0% of DFT collocation blocks in 1.364 [GiB].

  Minimum eigenvalue in the overlap matrix is 7.3498397525E-04.
  Using Symmetric Orthogonalization.

  SCF Guess: Superposition of Atomic Densities via on-the-fly atomic UHF.

  ==> Iterations <==

                           Total Energy        Delta E     RMS |[F,P]|

   @DF-RKS iter SAD:  -274.32089250042696   -2.74321e+02   0.00000e+00 
   @DF-RKS iter   1:  -274.03732241113920    2.83570e-01   8.09745e-03 DIIS
   @DF-RKS iter   2:  -273.73940269528748    2.97920e-01   1.00572e-02 DIIS
   @DF-RKS iter   3:  -274.61447776179023   -8.75075e-01   8.22957e-04 DIIS
   @DF-RKS iter   4:  -274.61876501897115   -4.28726e-03   3.32929e-04 DIIS
   @DF-RKS iter   5:  -274.61959015157339   -8.25133e-04   7.14414e-05 DIIS
   @DF-RKS iter   6:  -274.61963033784764   -4.01863e-05   7.36623e-06 DIIS
   @DF-RKS iter   7:  -274.61963070388117   -3.66034e-07   3.55519e-06 DIIS
   @DF-RKS iter   8:  -274.61963079986106   -9.59799e-08   6.05175e-07 DIIS
  Energy and wave function converged.


  ==> Post-Iterations <==

    Orbital Energies [Eh]
    ---------------------

    Doubly Occupied:                                                      

       1A    -10.224963     2A    -10.216225     3A    -10.216116  
       4A    -10.215945     5A    -10.215050     6A    -10.214696  
       7A    -10.209174     8A     -0.854062     9A     -0.777471  
      10A     -0.750818    11A     -0.685587    12A     -0.623010  
      13A     -0.603942    14A     -0.533684    15A     -0.501979  
      16A     -0.481206    17A     -0.454991    18A     -0.426667  
      19A     -0.418724    20A     -0.392588    21A     -0.383608  
      22A     -0.374865    23A     -0.364847    24A     -0.354201  
      25A     -0.350328    26A     -0.310106    27A     -0.304390  
      28A     -0.302360  

    Virtual:                                                              

      29A      0.060936    30A      0.081384    31A      0.091184  
      32A      0.105144    33A      0.128296    34A      0.133879  
      35A      0.139113    36A      0.147454    37A      0.149819  
      38A      0.161239    39A      0.173673    40A      0.182739  
      41A      0.186380    42A      0.202300    43A      0.215514  
      44A      0.221829    45A      0.256564    46A      0.268308  
      47A      0.278168    48A      0.311978    49A      0.318148  
      50A      0.432744    51A      0.443861    52A      0.455740  
      53A      0.461343    54A      0.470681    55A      0.495288  
      56A      0.520291    57A      0.578036    58A      0.608355  
      59A      0.614295    60A      0.642023    61A      0.653983  
      62A      0.656882    63A      0.673705    64A      0.687250  
      65A      0.701417    66A      0.702876    67A      0.707351  
      68A      0.721328    69A      0.726362    70A      0.729193  
      71A      0.737181    72A      0.741381    73A      0.744302  
      74A      0.750349    75A      0.757697    76A      0.769088  
      77A      0.769364    78A      0.774635    79A      0.778215  
      80A      0.794855    81A      0.802072    82A      0.836736  
      83A      0.873331    84A      0.943130    85A      1.036932  
      86A      1.056736    87A      1.062157    88A      1.124741  
      89A      1.213630    90A      1.303429    91A      1.315404  
      92A      1.416818    93A      1.452500    94A      1.634562  
      95A      1.665139    96A      1.721349    97A      1.760647  
      98A      1.774370    99A      1.832859   100A      1.862757  
     101A      1.896605   102A      1.919698   103A      1.934174  
     104A      1.964917   105A      1.994352   106A      2.020226  
     107A      2.036978   108A      2.074926   109A      2.113230  
     110A      2.138145   111A      2.166429   112A      2.202953  
     113A      2.237249   114A      2.284544   115A      2.328044  
     116A      2.373493   117A      2.391964   118A      2.422939  
     119A      2.448966   120A      2.479714   121A      2.595235  
     122A      2.656492   123A      2.671841   124A      2.731843  
     125A      2.796717   126A      2.820009  

    Final Occupation by Irrep:
              A 
    DOCC [    28 ]

  @DF-RKS Final Energy:  -274.61963079986106

   => Energetics <=

    Nuclear Repulsion Energy =            330.3007073107152110
    One-Electron Energy =               -1023.0387312752247908
    Two-Electron Energy =                 450.7156412795077358
    DFT Exchange-Correlation Energy =     -32.5972481148591839
    Empirical Dispersion Energy =           0.0000000000000000
    VV10 Nonlocal Energy =                  0.0000000000000000
    Total Energy =                       -274.6196307998610564

Computation Completed

  //>>>>>>>>>>>>>>>>>>>>>>>>>>>>>>>>>>>//
  //                PBE0               //
  //<<<<<<<<<<<<<<<<<<<<<<<<<<<<<<<<<<<//

   => Loading Basis Set <=

    Name: DEF2-TZVP
    Role: ORBITAL
    Keyword: BASIS
    atoms 1-7  entry C          line   123 file /usr/share/psi4/basis/def2-tzvp.gbs 
    atoms 8-21 entry H          line    15 file /usr/share/psi4/basis/def2-tzvp.gbs 


         ---------------------------------------------------------
                                   SCF
               by Justin Turney, Rob Parrish, Andy Simmonett
                          and Daniel G. A. Smith
                              RKS Reference
                        4 Threads,   3814 MiB Core
         ---------------------------------------------------------

  ==> Geometry <==

    Molecular point group: c1
    Full point group: C1

    Geometry (in Angstrom), charge = 0, multiplicity = 1:

       Center              X                  Y                   Z               Mass       
    ------------   -----------------  -----------------  -----------------  -----------------
         C           -0.972211010586    -0.032717814511    -0.331739420902    12.000000000000
         C           -0.323057599086     1.305176335589     0.054946501598    12.000000000000
         C           -0.279935813686    -1.170354965311     0.408402074898    12.000000000000
         C            1.170749162414     1.173553322889     0.378059612398    12.000000000000
         C            1.186524378014    -1.308014134711    -0.020210212702    12.000000000000
         C            1.800920219714     0.040362005389    -0.417461603402    12.000000000000
         C           -2.471779873986    -0.010550696311    -0.090839237402    12.000000000000
         H           -0.808784464286    -0.195023687211    -1.405629533602     1.007825032230
         H           -0.849521209586     1.719932893289     0.922169065798     1.007825032230
         H           -0.469545406486     2.021837380389    -0.759922110402     1.007825032230
         H           -0.811372840886    -2.112780438511     0.244763955998     1.007825032230
         H           -0.342858698786    -0.971223016811     1.485430830698     1.007825032230
         H            1.304395214014     0.970210756289     1.446548447398     1.007825032230
         H            1.684038739514     2.119180804789     0.183993157098     1.007825032230
         H            1.263662423014    -2.005093208011    -0.860218448202     1.007825032230
         H            1.763297391414    -1.751636147011     0.797190846898     1.007825032230
         H            1.640745470514     0.225106064489    -1.485592681502     1.007825032230
         H            2.884428391214     0.018300110289    -0.273017167902     1.007825032230
         H           -2.690035991486     0.090333779389     0.977260369698     1.007825032230
         H           -2.944858967686     0.830783941089    -0.605267976702     1.007825032230
         H           -2.947742071786    -0.929615078011    -0.443356889702     1.007825032230

  Running in c1 symmetry.

  Rotational constants: A =      0.13921  B =      0.07423  C =      0.05482 [cm^-1]
  Rotational constants: A =   4173.37434  B =   2225.48720  C =   1643.38170 [MHz]
  Nuclear repulsion =  330.300707310715211

  Charge       = 0
  Multiplicity = 1
  Electrons    = 56
  Nalpha       = 28
  Nbeta        = 28

  ==> Algorithm <==

  SCF Algorithm Type is DF.
  DIIS enabled.
  MOM disabled.
  Fractional occupation disabled.
  Guess Type is SAD.
  Energy threshold   = 1.00e-06
  Density threshold  = 1.00e-06
  Integral threshold = 0.00e+00

  ==> Primary Basis <==

  Basis Set: DEF2-TZVP
    Blend: DEF2-TZVP
    Number of shells: 133
    Number of basis function: 301
    Number of Cartesian functions: 336
    Spherical Harmonics?: true
    Max angular momentum: 3

  ==> DFT Potential <==

   => Composite Functional: PBE0 <= 

    PBE0 Hyb-GGA Exchange-Correlation Functional

    C. Adamo and V. Barone, J. Chem. Phys. 110, 6158 (1999)
    M. Ernzerhof and G. E. Scuseria, J. Chem. Phys. 110, 5029 (1999)

    Deriv               =              1
    GGA                 =           TRUE
    Meta                =          FALSE

    Exchange Hybrid     =           TRUE
    MP2 Hybrid          =          FALSE

   => Exchange Functionals <=

    0.7500   Perdew, Burke & Ernzerhof

   => Exact (HF) Exchange <=

    0.2500               HF 

   => Correlation Functionals <=

    1.0000   Perdew, Burke & Ernzerhof

   => Molecular Quadrature <=

    Radial Scheme          =       TREUTLER
    Pruning Scheme         =           FLAT
    Nuclear Scheme         =       TREUTLER

    BS radius alpha        =              1
    Pruning alpha          =              1
    Radial Points          =             75
    Spherical Points       =            302
    Total Points           =         472048
    Total Blocks           =           3484
    Max Points             =            256
    Max Functions          =            291

   => Loading Basis Set <=

    Name: (DEF2-TZVP AUX)
    Role: JKFIT
    Keyword: DF_BASIS_SCF
    atoms 1-7  entry C          line   203 file /usr/share/psi4/basis/def2-tzvp-jkfit.gbs 
    atoms 8-21 entry H          line    23 file /usr/share/psi4/basis/def2-tzvp-jkfit.gbs 


  Computing basis projection from DEF2-SV(P) to DEF2-TZVP

  ==> Pre-Iterations <==

   -------------------------------------------------------
    Irrep   Nso     Nmo     Nalpha   Nbeta   Ndocc  Nsocc
   -------------------------------------------------------
     A        301     301       0       0       0       0
   -------------------------------------------------------
    Total     301     301      28      28      28       0
   -------------------------------------------------------

  ==> Integral Setup <==

  DFHelper Memory: AOs need 0.534 GiB; user supplied 0.534 GiB. Using in-core AOs.

  ==> MemDFJK: Density-Fitted J/K Matrices <==

    J tasked:                   Yes
    K tasked:                   Yes
    wK tasked:                   No
    OpenMP threads:               4
    Memory [MiB]:               546
    Algorithm:                 Core
    Schwarz Cutoff:           1E-12
    Mask sparsity (%):       3.0242
    Fitting Condition:        1E-10

   => Auxiliary Basis Set <=

  Basis Set: (DEF2-TZVP AUX)
    Blend: DEF2-TZVP-JKFIT
    Number of shells: 259
    Number of basis function: 777
    Number of Cartesian functions: 903
    Spherical Harmonics?: true
    Max angular momentum: 4

  Cached 100.0% of DFT collocation blocks in 2.969 [GiB].

  Minimum eigenvalue in the overlap matrix is 4.3283469333E-05.
  Using Symmetric Orthogonalization.

  SCF Guess: Orbitals guess was supplied from a previous computation.

  ==> Iterations <==

                           Total Energy        Delta E     RMS |[F,P]|

   @DF-RKS iter   0:  -274.78040862616791   -2.74780e+02   5.32424e-03 
   @DF-RKS iter   1:  -274.93681663526405   -1.56408e-01   1.12054e-04 DIIS
   @DF-RKS iter   2:  -274.93679611664686    2.05186e-05   1.19774e-04 DIIS
   @DF-RKS iter   3:  -274.93745038791928   -6.54271e-04   1.79404e-05 DIIS
   @DF-RKS iter   4:  -274.93746237604483   -1.19881e-05   7.14721e-06 DIIS
   @DF-RKS iter   5:  -274.93746449713535   -2.12109e-06   9.13856e-07 DIIS
   @DF-RKS iter   6:  -274.93746453131126   -3.41759e-08   1.79112e-07 DIIS
  Energy and wave function converged.


  ==> Post-Iterations <==

    Orbital Energies [Eh]
    ---------------------

    Doubly Occupied:                                                      

       1A    -10.216566     2A    -10.209358     3A    -10.209021  
       4A    -10.208753     5A    -10.207982     6A    -10.207427  
       7A    -10.202805     8A     -0.859183     9A     -0.783355  
      10A     -0.756626    11A     -0.691434    12A     -0.627366  
      13A     -0.608048    14A     -0.536484    15A     -0.500534  
      16A     -0.479625    17A     -0.453241    18A     -0.425480  
      19A     -0.417314    20A     -0.390760    21A     -0.381213  
      22A     -0.372402    23A     -0.362661    24A     -0.352292  
      25A     -0.348333    26A     -0.307894    27A     -0.302150  
      28A     -0.300083  

    Virtual:                                                              

      29A      0.039948    30A      0.060885    31A      0.065693  
      32A      0.078488    33A      0.098789    34A      0.102884  
      35A      0.112661    36A      0.115944    37A      0.123098  
      38A      0.134163    39A      0.140837    40A      0.146434  
      41A      0.148523    42A      0.166210    43A      0.182660  
      44A      0.184607    45A      0.206031    46A      0.209449  
      47A      0.224979    48A      0.230214    49A      0.239761  
      50A      0.243444    51A      0.257010    52A      0.267096  
      53A      0.272726    54A      0.291547    55A      0.301520  
      56A      0.317621    57A      0.326163    58A      0.338144  
      59A      0.362042    60A      0.391778    61A      0.402469  
      62A      0.413285    63A      0.417136    64A      0.419249  
      65A      0.420352    66A      0.433137    67A      0.440340  
      68A      0.446472    69A      0.455064    70A      0.456070  
      71A      0.466368    72A      0.471306    73A      0.474428  
      74A      0.483552    75A      0.490725    76A      0.494251  
      77A      0.499511    78A      0.506965    79A      0.512498  
      80A      0.522996    81A      0.539609    82A      0.543227  
      83A      0.576458    84A      0.594089    85A      0.623447  
      86A      0.637411    87A      0.668101    88A      0.687091  
      89A      0.700997    90A      0.709319    91A      0.792369  
      92A      0.807131    93A      0.814497    94A      0.827380  
      95A      0.838007    96A      0.859644    97A      0.874542  
      98A      0.895483    99A      0.910992   100A      0.917678  
     101A      0.963975   102A      0.966341   103A      0.984263  
     104A      1.011430   105A      1.014583   106A      1.023803  
     107A      1.054339   108A      1.068264   109A      1.074478  
     110A      1.088518   111A      1.137617   112A      1.144509  
     113A      1.151043   114A      1.185914   115A      1.193660  
     116A      1.210469   117A      1.216425   118A      1.239186  
     119A      1.258270   120A      1.275144   121A      1.288860  
     122A      1.304159   123A      1.341784   124A      1.374752  
     125A      1.445665   126A      1.462180   127A      1.485230  
     128A      1.529632   129A      1.544691   130A      1.565099  
     131A      1.578129   132A      1.587244   133A      1.604888  
     134A      1.624585   135A      1.631923   136A      1.637636  
     137A      1.644460   138A      1.659232   139A      1.668626  
     140A      1.678840   141A      1.691530   142A      1.713534  
     143A      1.746282   144A      1.763740   145A      1.774977  
     146A      1.785504   147A      1.820937   148A      1.842471  
     149A      1.857286   150A      1.881994   151A      1.897834  
     152A      1.903352   153A      1.921884   154A      1.950631  
     155A      1.982237   156A      1.992351   157A      2.004726  
     158A      2.033676   159A      2.044777   160A      2.096104  
     161A      2.106658   162A      2.118044   163A      2.141345  
     164A      2.161661   165A      2.181103   166A      2.197490  
     167A      2.266301   168A      2.300210   169A      2.310632  
     170A      2.339821   171A      2.348000   172A      2.357526  
     173A      2.381778   174A      2.413511   175A      2.427941  
     176A      2.455654   177A      2.468735   178A      2.487872  
     179A      2.496639   180A      2.509607   181A      2.546880  
     182A      2.552788   183A      2.573796   184A      2.584895  
     185A      2.605590   186A      2.615181   187A      2.623184  
     188A      2.630124   189A      2.639641   190A      2.651293  
     191A      2.665289   192A      2.686852   193A      2.694082  
     194A      2.706772   195A      2.717983   196A      2.729310  
     197A      2.748636   198A      2.758035   199A      2.788367  
     200A      2.791569   201A      2.813861   202A      2.825742  
     203A      2.843925   204A      2.852270   205A      2.886410  
     206A      2.889857   207A      2.938431   208A      2.947627  
     209A      2.977562   210A      3.001348   211A      3.039001  
     212A      3.084327   213A      3.095134   214A      3.107297  
     215A      3.123626   216A      3.151072   217A      3.167949  
     218A      3.174219   219A      3.186179   220A      3.200502  
     221A      3.211285   222A      3.240879   223A      3.250067  
     224A      3.260357   225A      3.292380   226A      3.307576  
     227A      3.330578   228A      3.342479   229A      3.346135  
     230A      3.356417   231A      3.375802   232A      3.388821  
     233A      3.396458   234A      3.423656   235A      3.444480  
     236A      3.463132   237A      3.476913   238A      3.495482  
     239A      3.523667   240A      3.543932   241A      3.552559  
     242A      3.558810   243A      3.572184   244A      3.608987  
     245A      3.628516   246A      3.637427   247A      3.666402  
     248A      3.698394   249A      3.707560   250A      3.739840  
     251A      3.757474   252A      3.770819   253A      3.793664  
     254A      3.841403   255A      3.880598   256A      3.895745  
     257A      3.929244   258A      3.944176   259A      3.979679  
     260A      4.000655   261A      4.018657   262A      4.023391  
     263A      4.076365   264A      4.086992   265A      4.088092  
     266A      4.108756   267A      4.160432   268A      4.175605  
     269A      4.188620   270A      4.200186   271A      4.263875  
     272A      4.304587   273A      4.350178   274A      4.379074  
     275A      4.415140   276A      4.425295   277A      4.483235  
     278A      4.493588   279A      4.541789   280A      4.583957  
     281A      4.597286   282A      4.647044   283A      4.673632  
     284A      4.686126   285A      4.740908   286A      4.795748  
     287A      4.848862   288A      4.889682   289A      4.939499  
     290A      4.963452   291A      4.997347   292A      5.052570  
     293A      5.090811   294A      5.154099   295A     22.444035  
     296A     22.482991   297A     22.509881   298A     22.607015  
     299A     22.643461   300A     22.687223   301A     22.804731  

    Final Occupation by Irrep:
              A 
    DOCC [    28 ]

  @DF-RKS Final Energy:  -274.93746453131126

   => Energetics <=

    Nuclear Repulsion Energy =            330.3007073107152110
    One-Electron Energy =               -1023.7114288360619412
    Two-Electron Energy =                 451.1367138314703311
    DFT Exchange-Correlation Energy =     -32.6634568374348788
    Empirical Dispersion Energy =           0.0000000000000000
    VV10 Nonlocal Energy =                  0.0000000000000000
    Total Energy =                       -274.9374645313112637

Computation Completed


Properties will be evaluated at   0.000000,   0.000000,   0.000000 [a0]

Properties computed using the SCF density matrix

  Nuclear Dipole Moment: [e a0]
     X:    -1.2414      Y:     0.0284      Z:     0.2103

  Electronic Dipole Moment: [e a0]
     X:     1.2812      Y:    -0.0309      Z:    -0.2425

  Dipole Moment: [e a0]
     X:     0.0398      Y:    -0.0025      Z:    -0.0322     Total:     0.0512

  Dipole Moment: [D]
     X:     0.1012      Y:    -0.0062      Z:    -0.0818     Total:     0.1303


*** tstop() called on lenovo at Tue Jan 18 21:44:13 2022
Module time:
	user time   =     127.41 seconds =       2.12 minutes
	system time =       2.62 seconds =       0.04 minutes
	total time  =         39 seconds =       0.65 minutes
Total time:
	user time   =     127.41 seconds =       2.12 minutes
	system time =       2.62 seconds =       0.04 minutes
	total time  =         39 seconds =       0.65 minutes

    Psi4 stopped on: Tuesday, 18 January 2022 09:44PM
    Psi4 wall time for execution: 0:00:39.09

*** Psi4 exiting successfully. Buy a developer a beer!
