
    -----------------------------------------------------------------------
          Psi4: An Open-Source Ab Initio Electronic Structure Package
                               Psi4 1.3.2 release

                         Git: Rev {} zzzzzzz 


    R. M. Parrish, L. A. Burns, D. G. A. Smith, A. C. Simmonett,
    A. E. DePrince III, E. G. Hohenstein, U. Bozkaya, A. Yu. Sokolov,
    R. Di Remigio, R. M. Richard, J. F. Gonthier, A. M. James,
    H. R. McAlexander, A. Kumar, M. Saitow, X. Wang, B. P. Pritchard,
    P. Verma, H. F. Schaefer III, K. Patkowski, R. A. King, E. F. Valeev,
    F. A. Evangelista, J. M. Turney, T. D. Crawford, and C. D. Sherrill,
    J. Chem. Theory Comput. 13(7) pp 3185--3197 (2017).
    (doi: 10.1021/acs.jctc.7b00174)


                         Additional Contributions by
    P. Kraus, H. Kruse, M. H. Lechner, M. C. Schieber, R. A. Shaw,
    A. Alenaizan, R. Galvelis, Z. L. Glick, S. Lehtola, and J. P. Misiewicz

    -----------------------------------------------------------------------


    Psi4 started on: Tuesday, 18 January 2022 09:52PM

    Process ID: 839958
    Host:       lenovo
    PSIDATADIR: /usr/share/psi4
    Memory:     500.0 MiB
    Threads:    4
    
  ==> Input File <==

--------------------------------------------------------------------------
# PBE0/def2-QZVP calculation on methylcyclohexane conformer #3 

memory 4 gb

molecule {
	    C    -1.0847725685   0.0976610825  -0.4269486177
	    C    -0.2698286331   1.2632156387   0.1518459996
	    C    -0.2064731988  -1.1590011569  -0.5835254873
	    C     1.1768592218   1.2148149812  -0.3150011265
	    C     0.9073632537  -1.1919128461   0.4526424034
	    C     1.8846981078  -0.0300906667   0.2374596405
	    C    -2.3170183281  -0.1754578965   0.4224861901
	    H    -1.4252224679   0.3936204591  -1.4264545578
	    H    -0.2943853849   1.2160561614   1.2480726357
	    H    -0.7398522975   2.2129762511  -0.1197664510
	    H     0.2423860527  -1.1790207230  -1.5827271443
	    H    -0.8297626199  -2.0557369873  -0.5127267397
	    H     1.7137734802   2.1193450789  -0.0171833746
	    H     1.1926687761   1.1999861347  -1.4106391729
	    H     1.4401448988  -2.1460138025   0.4197189705
	    H     0.4667241381  -1.1283670621   1.4537331255
	    H     2.6787063228  -0.3355753250  -0.4508708907
	    H     2.3775904019   0.2113515366   1.1842119500
	    H    -2.9090967022   0.7328018070   0.5666285472
	    H    -2.9622182726  -0.9275147374  -0.0392110358
	    H    -2.0329280334  -0.5428668226   1.4140188414
}

# It is beneficial to initialize larger-basis calculations with
# a small reasonable basis; use def2-SV(P) for this purpose
set basis_guess def2-SV(P)
set basis def2-QZVP
energy('pbe0')
--------------------------------------------------------------------------

  Memory set to   3.725 GiB by Python driver.

*** tstart() called on lenovo
*** at Tue Jan 18 21:52:24 2022


  //>>>>>>>>>>>>>>>>>>>>>>>>>>>>>>>>>>>//
  //    Guess SCF, DEF2-SV(P) Basis    //
  //<<<<<<<<<<<<<<<<<<<<<<<<<<<<<<<<<<<//

   => Loading Basis Set <=

    Name: DEF2-SV(P)
    Role: ORBITAL
    Keyword: BASIS
    atoms 1-7  entry C          line    88 file /usr/share/psi4/basis/def2-sv_p_.gbs 
    atoms 8-21 entry H          line    15 file /usr/share/psi4/basis/def2-sv_p_.gbs 


         ---------------------------------------------------------
                           SCF Castup computation                  
         ---------------------------------------------------------
                                   SCF
               by Justin Turney, Rob Parrish, Andy Simmonett
                          and Daniel G. A. Smith
                              RKS Reference
                        4 Threads,   3814 MiB Core
         ---------------------------------------------------------

  ==> Geometry <==

    Molecular point group: c1
    Full point group: C1

    Geometry (in Angstrom), charge = 0, multiplicity = 1:

       Center              X                  Y                   Z               Mass       
    ------------   -----------------  -----------------  -----------------  -----------------
         C           -1.084772568488     0.097661082507    -0.426948617689    12.000000000000
         C           -0.269828633088     1.263215638707     0.151845999611    12.000000000000
         C           -0.206473198788    -1.159001156893    -0.583525487289    12.000000000000
         C            1.176859221812     1.214814981207    -0.315001126489    12.000000000000
         C            0.907363253712    -1.191912846093     0.452642403411    12.000000000000
         C            1.884698107812    -0.030090666693     0.237459640511    12.000000000000
         C           -2.317018328088    -0.175457896493     0.422486190111    12.000000000000
         H           -1.425222467888     0.393620459107    -1.426454557789     1.007825032230
         H           -0.294385384888     1.216056161407     1.248072635711     1.007825032230
         H           -0.739852297488     2.212976251107    -0.119766450989     1.007825032230
         H            0.242386052712    -1.179020722993    -1.582727144289     1.007825032230
         H           -0.829762619888    -2.055736987293    -0.512726739689     1.007825032230
         H            1.713773480212     2.119345078907    -0.017183374589     1.007825032230
         H            1.192668776112     1.199986134707    -1.410639172889     1.007825032230
         H            1.440144898812    -2.146013802493     0.419718970511     1.007825032230
         H            0.466724138112    -1.128367062093     1.453733125511     1.007825032230
         H            2.678706322812    -0.335575324993    -0.450870890689     1.007825032230
         H            2.377590401912     0.211351536607     1.184211950011     1.007825032230
         H           -2.909096702188     0.732801807007     0.566628547211     1.007825032230
         H           -2.962218272588    -0.927514737393    -0.039211035789     1.007825032230
         H           -2.032928033388    -0.542866822593     1.414018841411     1.007825032230

  Running in c1 symmetry.

  Rotational constants: A =      0.13633  B =      0.07598  C =      0.05807 [cm^-1]
  Rotational constants: A =   4086.98332  B =   2277.95767  C =   1740.89289 [MHz]
  Nuclear repulsion =  331.726266423276911

  Charge       = 0
  Multiplicity = 1
  Electrons    = 56
  Nalpha       = 28
  Nbeta        = 28

  ==> Algorithm <==

  SCF Algorithm Type is DF.
  DIIS enabled.
  MOM disabled.
  Fractional occupation disabled.
  Guess Type is SAD.
  Energy threshold   = 1.00e-06
  Density threshold  = 1.00e-06
  Integral threshold = 0.00e+00

  ==> Primary Basis <==

  Basis Set: DEF2-SV(P)
    Blend: DEF2-SV(P)
    Number of shells: 70
    Number of basis function: 126
    Number of Cartesian functions: 133
    Spherical Harmonics?: true
    Max angular momentum: 2

  ==> DFT Potential <==

   => Composite Functional: PBE0 <= 

    PBE0 Hyb-GGA Exchange-Correlation Functional

    C. Adamo and V. Barone, J. Chem. Phys. 110, 6158 (1999)
    M. Ernzerhof and G. E. Scuseria, J. Chem. Phys. 110, 5029 (1999)

    Deriv               =              1
    GGA                 =           TRUE
    Meta                =          FALSE

    Exchange Hybrid     =           TRUE
    MP2 Hybrid          =          FALSE

   => Exchange Functionals <=

    0.7500   Perdew, Burke & Ernzerhof

   => Exact (HF) Exchange <=

    0.2500               HF 

   => Correlation Functionals <=

    1.0000   Perdew, Burke & Ernzerhof

   => Molecular Quadrature <=

    Radial Scheme          =       TREUTLER
    Pruning Scheme         =           FLAT
    Nuclear Scheme         =       TREUTLER

    BS radius alpha        =              1
    Pruning alpha          =              1
    Radial Points          =             75
    Spherical Points       =            302
    Total Points           =         469440
    Total Blocks           =           3437
    Max Points             =            256
    Max Functions          =            125

   => Loading Basis Set <=

    Name: (DEF2-SV(P) AUX)
    Role: JKFIT
    Keyword: DF_BASIS_SCF
    atoms 1-7  entry C          line   203 file /usr/share/psi4/basis/def2-sv_p_-jkfit.gbs 
    atoms 8-21 entry H          line    23 file /usr/share/psi4/basis/def2-sv_p_-jkfit.gbs 

  ==> Pre-Iterations <==

   -------------------------------------------------------
    Irrep   Nso     Nmo     Nalpha   Nbeta   Ndocc  Nsocc
   -------------------------------------------------------
     A        126     126       0       0       0       0
   -------------------------------------------------------
    Total     126     126      28      28      28       0
   -------------------------------------------------------

  ==> Integral Setup <==

  ==> DiskDFJK: Density-Fitted J/K Matrices <==

    J tasked:                  Yes
    K tasked:                  Yes
    wK tasked:                  No
    OpenMP threads:              4
    Integrals threads:           4
    Memory [MiB]:             1448
    Algorithm:                Core
    Integral Cache:           NONE
    Schwarz Cutoff:          1E-12
    Fitting Condition:       1E-10

   => Auxiliary Basis Set <=

  Basis Set: (DEF2-SV(P) AUX)
    Blend: DEF2-SV_P_-JKFIT
    Number of shells: 259
    Number of basis function: 777
    Number of Cartesian functions: 903
    Spherical Harmonics?: true
    Max angular momentum: 4

  Cached 100.0% of DFT collocation blocks in 1.379 [GiB].

  Minimum eigenvalue in the overlap matrix is 7.9464945137E-04.
  Using Symmetric Orthogonalization.

  SCF Guess: Superposition of Atomic Densities via on-the-fly atomic UHF.

  ==> Iterations <==

                           Total Energy        Delta E     RMS |[F,P]|

   @DF-RKS iter SAD:  -274.32125552445069   -2.74321e+02   0.00000e+00 
   @DF-RKS iter   1:  -274.03335147620624    2.87904e-01   8.13073e-03 DIIS
   @DF-RKS iter   2:  -273.71341369561327    3.19938e-01   1.02283e-02 DIIS
   @DF-RKS iter   3:  -274.61391515047285   -9.00501e-01   8.12898e-04 DIIS
   @DF-RKS iter   4:  -274.61814726368533   -4.23211e-03   3.13299e-04 DIIS
   @DF-RKS iter   5:  -274.61886503561493   -7.17772e-04   8.06653e-05 DIIS
   @DF-RKS iter   6:  -274.61891598757018   -5.09520e-05   8.53390e-06 DIIS
   @DF-RKS iter   7:  -274.61891654513329   -5.57563e-07   3.33831e-06 DIIS
   @DF-RKS iter   8:  -274.61891663294784   -8.78146e-08   7.31991e-07 DIIS
  Energy and wave function converged.


  ==> Post-Iterations <==

    Orbital Energies [Eh]
    ---------------------

    Doubly Occupied:                                                      

       1A    -10.225517     2A    -10.216078     3A    -10.215996  
       4A    -10.215925     5A    -10.214913     6A    -10.214723  
       7A    -10.209004     8A     -0.854232     9A     -0.775930  
      10A     -0.751461    11A     -0.685531    12A     -0.629211  
      13A     -0.596522    14A     -0.530444    15A     -0.503331  
      16A     -0.489231    17A     -0.451628    18A     -0.426684  
      19A     -0.411072    20A     -0.400925    21A     -0.385100  
      22A     -0.370550    23A     -0.365616    24A     -0.358553  
      25A     -0.346015    26A     -0.308081    27A     -0.305379  
      28A     -0.303229  

    Virtual:                                                              

      29A      0.059820    30A      0.080173    31A      0.093934  
      32A      0.112416    33A      0.124689    34A      0.134999  
      35A      0.138579    36A      0.144531    37A      0.154765  
      38A      0.161424    39A      0.169068    40A      0.184134  
      41A      0.190902    42A      0.195157    43A      0.217398  
      44A      0.219174    45A      0.247963    46A      0.272143  
      47A      0.284777    48A      0.308632    49A      0.322192  
      50A      0.431591    51A      0.443102    52A      0.457524  
      53A      0.460555    54A      0.485015    55A      0.497936  
      56A      0.504380    57A      0.572357    58A      0.614819  
      59A      0.633545    60A      0.640859    61A      0.649115  
      62A      0.660444    63A      0.675001    64A      0.681623  
      65A      0.695711    66A      0.706142    67A      0.717330  
      68A      0.722820    69A      0.727154    70A      0.732750  
      71A      0.733808    72A      0.739676    73A      0.746151  
      74A      0.755636    75A      0.757205    76A      0.767032  
      77A      0.769732    78A      0.772902    79A      0.776609  
      80A      0.791494    81A      0.800063    82A      0.845170  
      83A      0.852911    84A      0.974566    85A      1.010882  
      86A      1.062570    87A      1.091392    88A      1.106385  
      89A      1.200752    90A      1.309979    91A      1.346223  
      92A      1.422203    93A      1.455838    94A      1.636803  
      95A      1.705633    96A      1.710112    97A      1.759789  
      98A      1.771644    99A      1.794708   100A      1.838829  
     101A      1.884876   102A      1.909840   103A      1.947396  
     104A      1.961760   105A      2.001209   106A      2.030033  
     107A      2.050490   108A      2.087761   109A      2.096311  
     110A      2.144553   111A      2.183999   112A      2.216916  
     113A      2.235713   114A      2.311105   115A      2.335416  
     116A      2.344319   117A      2.404109   118A      2.427437  
     119A      2.481918   120A      2.492443   121A      2.537050  
     122A      2.641682   123A      2.703366   124A      2.712434  
     125A      2.769790   126A      2.810242  

    Final Occupation by Irrep:
              A 
    DOCC [    28 ]

  @DF-RKS Final Energy:  -274.61891663294784

   => Energetics <=

    Nuclear Repulsion Energy =            331.7262664232769112
    One-Electron Energy =               -1025.8899404317160133
    Two-Electron Energy =                 452.1419332793671515
    DFT Exchange-Correlation Energy =     -32.5971759038758933
    Empirical Dispersion Energy =           0.0000000000000000
    VV10 Nonlocal Energy =                  0.0000000000000000
    Total Energy =                       -274.6189166329478439

Computation Completed

  //>>>>>>>>>>>>>>>>>>>>>>>>>>>>>>>>>>>//
  //                PBE0               //
  //<<<<<<<<<<<<<<<<<<<<<<<<<<<<<<<<<<<//

   => Loading Basis Set <=

    Name: DEF2-QZVP
    Role: ORBITAL
    Keyword: BASIS
    atoms 1-7  entry C          line   194 file /usr/share/psi4/basis/def2-qzvp.gbs 
    atoms 8-21 entry H          line    15 file /usr/share/psi4/basis/def2-qzvp.gbs 


         ---------------------------------------------------------
                                   SCF
               by Justin Turney, Rob Parrish, Andy Simmonett
                          and Daniel G. A. Smith
                              RKS Reference
                        4 Threads,   3814 MiB Core
         ---------------------------------------------------------

  ==> Geometry <==

    Molecular point group: c1
    Full point group: C1

    Geometry (in Angstrom), charge = 0, multiplicity = 1:

       Center              X                  Y                   Z               Mass       
    ------------   -----------------  -----------------  -----------------  -----------------
         C           -1.084772568488     0.097661082507    -0.426948617689    12.000000000000
         C           -0.269828633088     1.263215638707     0.151845999611    12.000000000000
         C           -0.206473198788    -1.159001156893    -0.583525487289    12.000000000000
         C            1.176859221812     1.214814981207    -0.315001126489    12.000000000000
         C            0.907363253712    -1.191912846093     0.452642403411    12.000000000000
         C            1.884698107812    -0.030090666693     0.237459640511    12.000000000000
         C           -2.317018328088    -0.175457896493     0.422486190111    12.000000000000
         H           -1.425222467888     0.393620459107    -1.426454557789     1.007825032230
         H           -0.294385384888     1.216056161407     1.248072635711     1.007825032230
         H           -0.739852297488     2.212976251107    -0.119766450989     1.007825032230
         H            0.242386052712    -1.179020722993    -1.582727144289     1.007825032230
         H           -0.829762619888    -2.055736987293    -0.512726739689     1.007825032230
         H            1.713773480212     2.119345078907    -0.017183374589     1.007825032230
         H            1.192668776112     1.199986134707    -1.410639172889     1.007825032230
         H            1.440144898812    -2.146013802493     0.419718970511     1.007825032230
         H            0.466724138112    -1.128367062093     1.453733125511     1.007825032230
         H            2.678706322812    -0.335575324993    -0.450870890689     1.007825032230
         H            2.377590401912     0.211351536607     1.184211950011     1.007825032230
         H           -2.909096702188     0.732801807007     0.566628547211     1.007825032230
         H           -2.962218272588    -0.927514737393    -0.039211035789     1.007825032230
         H           -2.032928033388    -0.542866822593     1.414018841411     1.007825032230

  Running in c1 symmetry.

  Rotational constants: A =      0.13633  B =      0.07598  C =      0.05807 [cm^-1]
  Rotational constants: A =   4086.98332  B =   2277.95767  C =   1740.89289 [MHz]
  Nuclear repulsion =  331.726266423276911

  Charge       = 0
  Multiplicity = 1
  Electrons    = 56
  Nalpha       = 28
  Nbeta        = 28

  ==> Algorithm <==

  SCF Algorithm Type is DF.
  DIIS enabled.
  MOM disabled.
  Fractional occupation disabled.
  Guess Type is SAD.
  Energy threshold   = 1.00e-06
  Density threshold  = 1.00e-06
  Integral threshold = 0.00e+00

  ==> Primary Basis <==

  Basis Set: DEF2-QZVP
    Blend: DEF2-QZVP
    Number of shells: 259
    Number of basis function: 819
    Number of Cartesian functions: 994
    Spherical Harmonics?: true
    Max angular momentum: 4

  ==> DFT Potential <==

   => Composite Functional: PBE0 <= 

    PBE0 Hyb-GGA Exchange-Correlation Functional

    C. Adamo and V. Barone, J. Chem. Phys. 110, 6158 (1999)
    M. Ernzerhof and G. E. Scuseria, J. Chem. Phys. 110, 5029 (1999)

    Deriv               =              1
    GGA                 =           TRUE
    Meta                =          FALSE

    Exchange Hybrid     =           TRUE
    MP2 Hybrid          =          FALSE

   => Exchange Functionals <=

    0.7500   Perdew, Burke & Ernzerhof

   => Exact (HF) Exchange <=

    0.2500               HF 

   => Correlation Functionals <=

    1.0000   Perdew, Burke & Ernzerhof

   => Molecular Quadrature <=

    Radial Scheme          =       TREUTLER
    Pruning Scheme         =           FLAT
    Nuclear Scheme         =       TREUTLER

    BS radius alpha        =              1
    Pruning alpha          =              1
    Radial Points          =             75
    Spherical Points       =            302
    Total Points           =         474030
    Total Blocks           =           3459
    Max Points             =            256
    Max Functions          =            723

   => Loading Basis Set <=

    Name: (DEF2-QZVP AUX)
    Role: JKFIT
    Keyword: DF_BASIS_SCF
    atoms 1-7  entry C          line   203 file /usr/share/psi4/basis/def2-qzvp-jkfit.gbs 
    atoms 8-21 entry H          line    23 file /usr/share/psi4/basis/def2-qzvp-jkfit.gbs 


  Computing basis projection from DEF2-SV(P) to DEF2-QZVP

  ==> Pre-Iterations <==

   -------------------------------------------------------
    Irrep   Nso     Nmo     Nalpha   Nbeta   Ndocc  Nsocc
   -------------------------------------------------------
     A        819     819       0       0       0       0
   -------------------------------------------------------
    Total     819     819      28      28      28       0
   -------------------------------------------------------

  ==> Integral Setup <==

  ==> DiskDFJK: Density-Fitted J/K Matrices <==

    J tasked:                  Yes
    K tasked:                  Yes
    wK tasked:                  No
    OpenMP threads:              4
    Integrals threads:           4
    Memory [MiB]:             1834
    Algorithm:                Disk
    Integral Cache:           NONE
    Schwarz Cutoff:          1E-12
    Fitting Condition:       1E-10

   => Auxiliary Basis Set <=

  Basis Set: (DEF2-QZVP AUX)
    Blend: DEF2-QZVP-JKFIT
    Number of shells: 259
    Number of basis function: 777
    Number of Cartesian functions: 903
    Spherical Harmonics?: true
    Max angular momentum: 4

  Cached 16.7% of DFT collocation blocks in 1.044 [GiB].

  Minimum eigenvalue in the overlap matrix is 9.2772905024E-06.
  Using Symmetric Orthogonalization.

  SCF Guess: Orbitals guess was supplied from a previous computation.

  ==> Iterations <==

                           Total Energy        Delta E     RMS |[F,P]|

   @DF-RKS iter   0:  -274.73305074569464   -2.74733e+02   3.69329e-03 
   @DF-RKS iter   1:  -274.95543613431386   -2.22385e-01   5.67418e-05 DIIS
   @DF-RKS iter   2:  -274.95538160948632    5.45248e-05   5.53450e-05 DIIS
   @DF-RKS iter   3:  -274.95637940706933   -9.97798e-04   1.19576e-05 DIIS
   @DF-RKS iter   4:  -274.95642226772708   -4.28607e-05   3.31759e-06 DIIS
   @DF-RKS iter   5:  -274.95642553659184   -3.26886e-06   5.82631e-07 DIIS
   @DF-RKS iter   6:  -274.95642563672504   -1.00133e-07   1.13263e-07 DIIS
  Energy and wave function converged.


  ==> Post-Iterations <==

    Orbital Energies [Eh]
    ---------------------

    Doubly Occupied:                                                      

       1A    -10.220014     2A    -10.211589     3A    -10.211284  
       4A    -10.211170     5A    -10.210081     6A    -10.209921  
       7A    -10.204876     8A     -0.859382     9A     -0.781926  
      10A     -0.757417    11A     -0.691524    12A     -0.633599  
      13A     -0.601006    14A     -0.533658    15A     -0.501862  
      16A     -0.487615    17A     -0.449900    18A     -0.425441  
      19A     -0.409412    20A     -0.399323    21A     -0.382728  
      22A     -0.368588    23A     -0.363541    24A     -0.356617  
      25A     -0.344035    26A     -0.305955    27A     -0.303279  
      28A     -0.301104  

    Virtual:                                                              

      29A      0.026471    30A      0.037729    31A      0.045927  
      32A      0.055487    33A      0.074622    34A      0.075625  
      35A      0.081091    36A      0.084483    37A      0.091276  
      38A      0.106215    39A      0.112229    40A      0.116477  
      41A      0.131605    42A      0.133950    43A      0.143593  
      44A      0.150832    45A      0.166717    46A      0.175844  
      47A      0.182945    48A      0.190280    49A      0.193627  
      50A      0.199801    51A      0.201224    52A      0.218828  
      53A      0.221093    54A      0.234106    55A      0.248181  
      56A      0.259458    57A      0.261596    58A      0.278294  
      59A      0.284628    60A      0.289723    61A      0.297503  
      62A      0.300515    63A      0.304092    64A      0.311355  
      65A      0.315165    66A      0.325838    67A      0.330469  
      68A      0.336814    69A      0.339370    70A      0.341554  
      71A      0.345702    72A      0.355952    73A      0.361126  
      74A      0.366875    75A      0.368396    76A      0.374160  
      77A      0.381440    78A      0.387227    79A      0.395402  
      80A      0.409096    81A      0.415340    82A      0.432627  
      83A      0.459974    84A      0.485882    85A      0.498901  
      86A      0.506864    87A      0.522492    88A      0.542980  
      89A      0.555330    90A      0.559663    91A      0.570237  
      92A      0.572625    93A      0.578771    94A      0.590029  
      95A      0.595707    96A      0.604551    97A      0.613235  
      98A      0.622453    99A      0.630008   100A      0.638871  
     101A      0.646337   102A      0.650964   103A      0.656323  
     104A      0.670755   105A      0.683772   106A      0.706707  
     107A      0.717355   108A      0.723542   109A      0.747432  
     110A      0.758953   111A      0.780910   112A      0.790235  
     113A      0.796889   114A      0.800616   115A      0.804310  
     116A      0.810877   117A      0.819960   118A      0.834965  
     119A      0.837503   120A      0.844006   121A      0.849938  
     122A      0.858894   123A      0.864647   124A      0.873098  
     125A      0.875688   126A      0.880104   127A      0.886334  
     128A      0.893538   129A      0.896300   130A      0.903502  
     131A      0.913627   132A      0.918987   133A      0.925287  
     134A      0.931241   135A      0.942841   136A      0.948955  
     137A      0.960964   138A      0.968174   139A      0.974513  
     140A      0.988039   141A      0.997116   142A      1.004336  
     143A      1.009137   144A      1.027609   145A      1.038333  
     146A      1.045279   147A      1.058354   148A      1.070151  
     149A      1.079180   150A      1.110404   151A      1.114974  
     152A      1.126907   153A      1.136752   154A      1.144115  
     155A      1.156450   156A      1.164889   157A      1.171692  
     158A      1.179187   159A      1.193702   160A      1.199849  
     161A      1.205873   162A      1.227135   163A      1.234880  
     164A      1.242053   165A      1.250615   166A      1.264108  
     167A      1.277586   168A      1.297205   169A      1.309584  
     170A      1.320267   171A      1.333754   172A      1.352455  
     173A      1.362292   174A      1.379333   175A      1.382074  
     176A      1.398312   177A      1.410383   178A      1.432100  
     179A      1.434955   180A      1.454019   181A      1.464413  
     182A      1.477985   183A      1.484810   184A      1.500434  
     185A      1.507976   186A      1.516995   187A      1.519580  
     188A      1.534035   189A      1.550547   190A      1.564869  
     191A      1.570969   192A      1.583202   193A      1.600327  
     194A      1.609626   195A      1.634340   196A      1.645075  
     197A      1.666982   198A      1.695677   199A      1.702457  
     200A      1.715177   201A      1.733268   202A      1.739260  
     203A      1.764055   204A      1.780996   205A      1.799153  
     206A      1.814401   207A      1.821788   208A      1.847288  
     209A      1.851018   210A      1.863131   211A      1.890015  
     212A      1.912052   213A      1.917313   214A      1.931110  
     215A      1.946045   216A      1.972853   217A      1.977560  
     218A      1.982820   219A      1.999179   220A      2.012919  
     221A      2.023490   222A      2.030853   223A      2.038934  
     224A      2.041606   225A      2.053125   226A      2.059458  
     227A      2.071472   228A      2.085047   229A      2.087668  
     230A      2.095188   231A      2.117362   232A      2.122912  
     233A      2.125255   234A      2.136711   235A      2.142363  
     236A      2.147884   237A      2.163211   238A      2.164015  
     239A      2.171403   240A      2.183546   241A      2.191330  
     242A      2.197806   243A      2.205128   244A      2.207567  
     245A      2.227438   246A      2.241658   247A      2.243905  
     248A      2.254502   249A      2.273139   250A      2.280185  
     251A      2.286560   252A      2.303258   253A      2.311172  
     254A      2.323539   255A      2.330132   256A      2.333504  
     257A      2.356649   258A      2.357252   259A      2.364165  
     260A      2.366928   261A      2.368293   262A      2.399639  
     263A      2.408621   264A      2.415988   265A      2.423213  
     266A      2.439259   267A      2.440569   268A      2.461656  
     269A      2.469636   270A      2.493121   271A      2.500547  
     272A      2.504759   273A      2.521208   274A      2.527199  
     275A      2.540479   276A      2.553252   277A      2.563328  
     278A      2.567593   279A      2.580477   280A      2.596100  
     281A      2.603198   282A      2.613326   283A      2.618621  
     284A      2.626128   285A      2.632179   286A      2.644342  
     287A      2.651692   288A      2.659849   289A      2.686937  
     290A      2.695576   291A      2.715879   292A      2.722525  
     293A      2.729898   294A      2.740809   295A      2.752612  
     296A      2.759635   297A      2.768216   298A      2.779344  
     299A      2.784045   300A      2.800585   301A      2.815195  
     302A      2.828563   303A      2.830409   304A      2.848254  
     305A      2.862614   306A      2.873580   307A      2.886437  
     308A      2.908498   309A      2.912628   310A      2.914084  
     311A      2.923343   312A      2.935342   313A      2.944225  
     314A      2.949330   315A      2.961784   316A      2.968353  
     317A      2.977073   318A      2.985458   319A      2.999053  
     320A      3.005859   321A      3.013687   322A      3.019664  
     323A      3.030331   324A      3.037093   325A      3.040267  
     326A      3.052548   327A      3.062524   328A      3.075477  
     329A      3.100812   330A      3.114313   331A      3.130288  
     332A      3.135798   333A      3.144270   334A      3.157878  
     335A      3.167039   336A      3.173184   337A      3.188806  
     338A      3.204333   339A      3.227012   340A      3.232772  
     341A      3.246885   342A      3.251106   343A      3.259220  
     344A      3.274515   345A      3.296004   346A      3.322457  
     347A      3.324076   348A      3.325220   349A      3.337943  
     350A      3.354479   351A      3.363356   352A      3.384610  
     353A      3.400964   354A      3.424585   355A      3.429940  
     356A      3.433246   357A      3.465458   358A      3.473935  
     359A      3.476318   360A      3.493217   361A      3.498901  
     362A      3.505180   363A      3.532212   364A      3.540338  
     365A      3.545032   366A      3.567203   367A      3.586615  
     368A      3.603139   369A      3.610953   370A      3.618057  
     371A      3.648709   372A      3.658062   373A      3.662262  
     374A      3.674092   375A      3.694323   376A      3.704041  
     377A      3.716118   378A      3.729390   379A      3.748662  
     380A      3.760078   381A      3.777828   382A      3.787278  
     383A      3.806492   384A      3.819464   385A      3.842197  
     386A      3.857552   387A      3.863012   388A      3.888323  
     389A      3.892930   390A      3.909423   391A      3.936258  
     392A      3.942345   393A      3.949313   394A      3.974128  
     395A      3.982661   396A      4.003920   397A      4.008659  
     398A      4.022307   399A      4.032335   400A      4.039905  
     401A      4.085229   402A      4.086214   403A      4.098160  
     404A      4.100208   405A      4.127865   406A      4.154719  
     407A      4.173627   408A      4.206010   409A      4.223582  
     410A      4.249609   411A      4.305186   412A      4.330506  
     413A      4.403327   414A      4.449983   415A      4.470454  
     416A      4.507460   417A      4.547935   418A      4.604872  
     419A      4.643003   420A      4.703299   421A      4.771624  
     422A      4.828567   423A      4.849128   424A      4.869657  
     425A      4.880824   426A      4.890972   427A      4.935916  
     428A      4.958048   429A      4.983776   430A      5.042701  
     431A      5.073850   432A      5.148791   433A      5.181601  
     434A      5.198134   435A      5.247410   436A      5.262777  
     437A      5.306269   438A      5.313528   439A      5.320108  
     440A      5.413083   441A      5.435414   442A      5.457155  
     443A      5.472383   444A      5.500292   445A      5.530418  
     446A      5.540491   447A      5.557898   448A      5.572384  
     449A      5.601817   450A      5.638639   451A      5.657218  
     452A      5.680389   453A      5.700070   454A      5.730609  
     455A      5.734754   456A      5.752685   457A      5.766525  
     458A      5.783114   459A      5.786561   460A      5.809364  
     461A      5.823921   462A      5.839318   463A      5.847237  
     464A      5.866663   465A      5.869481   466A      5.893770  
     467A      5.903118   468A      5.909626   469A      5.924930  
     470A      5.934652   471A      5.944810   472A      5.954103  
     473A      5.961358   474A      5.972976   475A      5.984131  
     476A      5.986138   477A      5.992795   478A      6.003430  
     479A      6.011715   480A      6.033510   481A      6.044616  
     482A      6.064428   483A      6.070635   484A      6.081214  
     485A      6.087870   486A      6.099037   487A      6.110753  
     488A      6.112786   489A      6.128038   490A      6.142283  
     491A      6.144351   492A      6.155873   493A      6.170205  
     494A      6.172083   495A      6.177279   496A      6.192004  
     497A      6.202244   498A      6.209868   499A      6.215690  
     500A      6.236869   501A      6.245263   502A      6.251304  
     503A      6.272255   504A      6.275027   505A      6.285257  
     506A      6.300818   507A      6.307625   508A      6.325170  
     509A      6.331824   510A      6.337199   511A      6.360330  
     512A      6.367090   513A      6.367349   514A      6.386978  
     515A      6.390622   516A      6.402309   517A      6.408754  
     518A      6.422872   519A      6.427378   520A      6.432538  
     521A      6.446504   522A      6.464733   523A      6.470772  
     524A      6.498890   525A      6.503807   526A      6.514186  
     527A      6.524544   528A      6.529173   529A      6.539253  
     530A      6.547475   531A      6.550181   532A      6.569481  
     533A      6.584632   534A      6.600408   535A      6.616129  
     536A      6.624217   537A      6.636737   538A      6.648968  
     539A      6.654617   540A      6.658215   541A      6.683241  
     542A      6.695241   543A      6.708860   544A      6.714160  
     545A      6.724739   546A      6.737741   547A      6.760135  
     548A      6.773041   549A      6.793159   550A      6.804515  
     551A      6.816315   552A      6.829486   553A      6.834918  
     554A      6.843854   555A      6.873665   556A      6.875176  
     557A      6.896276   558A      6.903845   559A      6.920828  
     560A      6.929345   561A      6.942513   562A      6.953789  
     563A      6.959639   564A      6.972064   565A      6.984613  
     566A      6.989759   567A      6.999542   568A      7.022519  
     569A      7.038349   570A      7.055070   571A      7.076538  
     572A      7.084567   573A      7.108811   574A      7.128438  
     575A      7.141830   576A      7.151035   577A      7.156279  
     578A      7.189574   579A      7.210857   580A      7.224465  
     581A      7.242967   582A      7.250699   583A      7.278861  
     584A      7.292428   585A      7.312910   586A      7.333991  
     587A      7.340276   588A      7.352553   589A      7.382166  
     590A      7.396873   591A      7.422099   592A      7.423679  
     593A      7.443714   594A      7.448549   595A      7.461356  
     596A      7.472481   597A      7.491955   598A      7.494451  
     599A      7.513695   600A      7.536635   601A      7.558232  
     602A      7.569315   603A      7.572008   604A      7.588898  
     605A      7.604042   606A      7.610254   607A      7.614748  
     608A      7.636669   609A      7.657302   610A      7.659932  
     611A      7.679654   612A      7.692084   613A      7.700795  
     614A      7.714423   615A      7.720736   616A      7.728828  
     617A      7.737950   618A      7.751001   619A      7.755162  
     620A      7.760757   621A      7.768733   622A      7.790190  
     623A      7.810209   624A      7.811525   625A      7.835698  
     626A      7.839822   627A      7.857528   628A      7.873136  
     629A      7.877884   630A      7.885158   631A      7.900533  
     632A      7.901195   633A      7.909037   634A      7.916904  
     635A      7.941834   636A      7.948356   637A      7.957851  
     638A      7.965080   639A      7.982248   640A      7.997204  
     641A      7.998673   642A      8.014991   643A      8.019844  
     644A      8.029228   645A      8.039296   646A      8.053457  
     647A      8.061321   648A      8.078059   649A      8.097855  
     650A      8.103079   651A      8.118183   652A      8.124127  
     653A      8.129623   654A      8.141511   655A      8.157480  
     656A      8.170193   657A      8.189526   658A      8.199499  
     659A      8.212627   660A      8.240074   661A      8.248517  
     662A      8.266946   663A      8.290941   664A      8.303318  
     665A      8.308341   666A      8.322355   667A      8.344709  
     668A      8.350299   669A      8.377514   670A      8.391078  
     671A      8.397261   672A      8.407641   673A      8.439064  
     674A      8.447861   675A      8.454889   676A      8.466419  
     677A      8.486731   678A      8.496608   679A      8.502829  
     680A      8.517090   681A      8.526989   682A      8.549058  
     683A      8.556191   684A      8.558729   685A      8.576448  
     686A      8.579805   687A      8.597036   688A      8.605037  
     689A      8.618638   690A      8.636720   691A      8.638961  
     692A      8.652058   693A      8.660371   694A      8.670966  
     695A      8.683584   696A      8.686072   697A      8.696094  
     698A      8.698228   699A      8.706510   700A      8.723592  
     701A      8.734332   702A      8.743545   703A      8.751629  
     704A      8.769954   705A      8.788765   706A      8.796457  
     707A      8.799436   708A      8.821721   709A      8.827921  
     710A      8.849342   711A      8.877171   712A      8.894647  
     713A      8.911292   714A      8.922273   715A      8.940802  
     716A      8.952822   717A      8.960471   718A      8.982703  
     719A      8.985397   720A      9.005190   721A      9.027087  
     722A      9.041321   723A      9.046505   724A      9.070693  
     725A      9.091494   726A      9.107352   727A      9.111893  
     728A      9.133733   729A      9.142389   730A      9.167763  
     731A      9.179057   732A      9.214339   733A      9.230316  
     734A      9.242258   735A      9.249502   736A      9.262917  
     737A      9.284697   738A      9.303583   739A      9.324509  
     740A      9.355933   741A      9.378387   742A      9.431148  
     743A      9.488588   744A      9.554896   745A      9.592061  
     746A      9.604445   747A      9.616797   748A      9.668039  
     749A      9.727335   750A      9.738408   751A      9.790953  
     752A      9.803768   753A      9.822624   754A      9.844182  
     755A      9.868591   756A      9.902150   757A      9.904027  
     758A      9.924789   759A      9.945614   760A      9.962763  
     761A      9.976408   762A      9.984269   763A     10.009164  
     764A     10.027110   765A     10.058759   766A     10.069484  
     767A     10.091289   768A     10.107619   769A     10.124602  
     770A     10.148287   771A     10.179156   772A     10.184847  
     773A     10.186944   774A     10.206594   775A     10.230027  
     776A     10.270255   777A     10.278262   778A     10.286608  
     779A     10.290527   780A     10.308745   781A     10.328958  
     782A     10.349326   783A     10.363732   784A     10.447774  
     785A     10.465445   786A     10.541591   787A     10.559504  
     788A     10.595129   789A     10.637369   790A     10.640809  
     791A     10.733320   792A     12.150294   793A     12.300268  
     794A     12.427441   795A     12.482590   796A     12.496883  
     797A     12.568780   798A     12.686461   799A     13.089563  
     800A     13.182604   801A     13.212486   802A     13.248452  
     803A     13.301482   804A     13.330469   805A     13.374367  
     806A     29.126100   807A     29.176977   808A     29.193224  
     809A     29.214305   810A     29.236210   811A     29.286061  
     812A     29.294076   813A    148.370690   814A    148.418308  
     815A    148.439901   816A    148.473547   817A    148.494029  
     818A    148.536262   819A    148.577132  

    Final Occupation by Irrep:
              A 
    DOCC [    28 ]

  @DF-RKS Final Energy:  -274.95642563672504

   => Energetics <=

    Nuclear Repulsion Energy =            331.7262664232769112
    One-Electron Energy =               -1026.5695430782002404
    Two-Electron Energy =                 452.5408222090765662
    DFT Exchange-Correlation Energy =     -32.6539711908782806
    Empirical Dispersion Energy =           0.0000000000000000
    VV10 Nonlocal Energy =                  0.0000000000000000
    Total Energy =                       -274.9564256367250437

Computation Completed


Properties will be evaluated at   0.000000,   0.000000,   0.000000 [a0]

Properties computed using the SCF density matrix

  Nuclear Dipole Moment: [e a0]
     X:    -1.0138      Y:    -0.2146      Z:     0.6814

  Electronic Dipole Moment: [e a0]
     X:     1.0334      Y:     0.2273      Z:    -0.7179

  Dipole Moment: [e a0]
     X:     0.0195      Y:     0.0126      Z:    -0.0365     Total:     0.0433

  Dipole Moment: [D]
     X:     0.0497      Y:     0.0321      Z:    -0.0928     Total:     0.1100


*** tstop() called on lenovo at Tue Jan 18 21:54:49 2022
Module time:
	user time   =     498.04 seconds =       8.30 minutes
	system time =      12.01 seconds =       0.20 minutes
	total time  =        145 seconds =       2.42 minutes
Total time:
	user time   =     498.04 seconds =       8.30 minutes
	system time =      12.01 seconds =       0.20 minutes
	total time  =        145 seconds =       2.42 minutes

    Psi4 stopped on: Tuesday, 18 January 2022 09:54PM
    Psi4 wall time for execution: 0:02:25.33

*** Psi4 exiting successfully. Buy a developer a beer!
