
    -----------------------------------------------------------------------
          Psi4: An Open-Source Ab Initio Electronic Structure Package
                               Psi4 1.3.2 release

                         Git: Rev {} zzzzzzz 


    R. M. Parrish, L. A. Burns, D. G. A. Smith, A. C. Simmonett,
    A. E. DePrince III, E. G. Hohenstein, U. Bozkaya, A. Yu. Sokolov,
    R. Di Remigio, R. M. Richard, J. F. Gonthier, A. M. James,
    H. R. McAlexander, A. Kumar, M. Saitow, X. Wang, B. P. Pritchard,
    P. Verma, H. F. Schaefer III, K. Patkowski, R. A. King, E. F. Valeev,
    F. A. Evangelista, J. M. Turney, T. D. Crawford, and C. D. Sherrill,
    J. Chem. Theory Comput. 13(7) pp 3185--3197 (2017).
    (doi: 10.1021/acs.jctc.7b00174)


                         Additional Contributions by
    P. Kraus, H. Kruse, M. H. Lechner, M. C. Schieber, R. A. Shaw,
    A. Alenaizan, R. Galvelis, Z. L. Glick, S. Lehtola, and J. P. Misiewicz

    -----------------------------------------------------------------------


    Psi4 started on: Saturday, 10 July 2021 02:36PM

    Process ID: 1473532
    Host:       thinkpad
    PSIDATADIR: /usr/share/psi4
    Memory:     500.0 MiB
    Threads:    4
    
  ==> Input File <==

--------------------------------------------------------------------------
# PBE0/def2-QZVP calculation on methylcyclohexane conformer #6 

memory 4 gb

molecule {
	    C     1.0849717366  -0.0978338619  -0.4265807435
	    C     0.2694975280  -1.2634507210   0.1514153233
	    C     0.2068846128   1.1588582715  -0.5836659329
	    C    -1.1770215756  -1.2143891340  -0.3157936938
	    C    -0.9070775445   1.1921777779   0.4522756089
	    C    -1.8845387709   0.0303796342   0.2372136729
	    C     2.3165101692   0.1750473077   0.4239593417
	    H     1.4263579710  -0.3935956183  -1.4258247825
	    H     0.2936194961  -1.2166856349   1.2476755870
	    H     0.7393513144  -2.2132620890  -0.1203180858
	    H    -0.2418950561   1.1786545667  -1.5829053479
	    H     0.8301887895   2.0555998197  -0.5130801748
	    H    -1.7143066533  -2.1189046615  -0.0186055586
	    H    -1.1925509005  -1.1989900062  -1.4114341819
	    H    -1.4396638573   2.1463757338   0.4190733700
	    H    -0.4665683135   1.1287819291   1.4534257086
	    H    -2.6790260058   0.3359463316  -0.4505217681
	    H    -2.3768203334  -0.2113353400   1.1842235708
	    H     2.9084484513  -0.7332476902   0.5684002053
	    H     2.9621001337   0.9271917255  -0.0370268309
	    H     2.0315935788   0.5422097516   1.4153354838
}

# It is beneficial to initialize larger-basis calculations with
# a small reasonable basis; use def2-SV(P) for this purpose
set basis_guess def2-SV(P)
set basis def2-QZVP
energy('pbe0')
--------------------------------------------------------------------------

  Memory set to   3.725 GiB by Python driver.

*** tstart() called on thinkpad
*** at Sat Jul 10 14:36:37 2021


  //>>>>>>>>>>>>>>>>>>>>>>>>>>>>>>>>>>>//
  //    Guess SCF, DEF2-SV(P) Basis    //
  //<<<<<<<<<<<<<<<<<<<<<<<<<<<<<<<<<<<//

   => Loading Basis Set <=

    Name: DEF2-SV(P)
    Role: ORBITAL
    Keyword: BASIS
    atoms 1-7  entry C          line    88 file /usr/share/psi4/basis/def2-sv_p_.gbs 
    atoms 8-21 entry H          line    15 file /usr/share/psi4/basis/def2-sv_p_.gbs 


         ---------------------------------------------------------
                           SCF Castup computation                  
         ---------------------------------------------------------
                                   SCF
               by Justin Turney, Rob Parrish, Andy Simmonett
                          and Daniel G. A. Smith
                              RKS Reference
                        4 Threads,   3814 MiB Core
         ---------------------------------------------------------

  ==> Geometry <==

    Molecular point group: c1
    Full point group: C1

    Geometry (in Angstrom), charge = 0, multiplicity = 1:

       Center              X                  Y                   Z               Mass       
    ------------   -----------------  -----------------  -----------------  -----------------
         C            1.084971736591    -0.097833861893    -0.426580743523    12.000000000000
         C            0.269497527991    -1.263450720993     0.151415323277    12.000000000000
         C            0.206884612791     1.158858271507    -0.583665932923    12.000000000000
         C           -1.177021575609    -1.214389133993    -0.315793693823    12.000000000000
         C           -0.907077544509     1.192177777907     0.452275608877    12.000000000000
         C           -1.884538770909     0.030379634207     0.237213672877    12.000000000000
         C            2.316510169191     0.175047307707     0.423959341677    12.000000000000
         H            1.426357970991    -0.393595618293    -1.425824782523     1.007825032230
         H            0.293619496091    -1.216685634893     1.247675586977     1.007825032230
         H            0.739351314391    -2.213262088993    -0.120318085823     1.007825032230
         H           -0.241895056109     1.178654566707    -1.582905347923     1.007825032230
         H            0.830188789491     2.055599819707    -0.513080174823     1.007825032230
         H           -1.714306653309    -2.118904661493    -0.018605558623     1.007825032230
         H           -1.192550900509    -1.198990006193    -1.411434181923     1.007825032230
         H           -1.439663857309     2.146375733807     0.419073369977     1.007825032230
         H           -0.466568313509     1.128781929107     1.453425708577     1.007825032230
         H           -2.679026005809     0.335946331607    -0.450521768123     1.007825032230
         H           -2.376820333409    -0.211335339993     1.184223570777     1.007825032230
         H            2.908448451291    -0.733247690193     0.568400205277     1.007825032230
         H            2.962100133691     0.927191725507    -0.037026830923     1.007825032230
         H            2.031593578791     0.542209751607     1.415335483777     1.007825032230

  Running in c1 symmetry.

  Rotational constants: A =      0.13631  B =      0.07599  C =      0.05808 [cm^-1]
  Rotational constants: A =   4086.50420  B =   2278.24494  C =   1741.15238 [MHz]
  Nuclear repulsion =  331.732541093755970

  Charge       = 0
  Multiplicity = 1
  Electrons    = 56
  Nalpha       = 28
  Nbeta        = 28

  ==> Algorithm <==

  SCF Algorithm Type is DF.
  DIIS enabled.
  MOM disabled.
  Fractional occupation disabled.
  Guess Type is SAD.
  Energy threshold   = 1.00e-06
  Density threshold  = 1.00e-06
  Integral threshold = 0.00e+00

  ==> Primary Basis <==

  Basis Set: DEF2-SV(P)
    Blend: DEF2-SV(P)
    Number of shells: 70
    Number of basis function: 126
    Number of Cartesian functions: 133
    Spherical Harmonics?: true
    Max angular momentum: 2

  ==> DFT Potential <==

   => Composite Functional: PBE0 <= 

    PBE0 Hyb-GGA Exchange-Correlation Functional

    C. Adamo and V. Barone, J. Chem. Phys. 110, 6158 (1999)
    M. Ernzerhof and G. E. Scuseria, J. Chem. Phys. 110, 5029 (1999)

    Deriv               =              1
    GGA                 =           TRUE
    Meta                =          FALSE

    Exchange Hybrid     =           TRUE
    MP2 Hybrid          =          FALSE

   => Exchange Functionals <=

    0.7500   Perdew, Burke & Ernzerhof

   => Exact (HF) Exchange <=

    0.2500               HF 

   => Correlation Functionals <=

    1.0000   Perdew, Burke & Ernzerhof

   => Molecular Quadrature <=

    Radial Scheme          =       TREUTLER
    Pruning Scheme         =           FLAT
    Nuclear Scheme         =       TREUTLER

    BS radius alpha        =              1
    Pruning alpha          =              1
    Radial Points          =             75
    Spherical Points       =            302
    Total Points           =         469439
    Total Blocks           =           3431
    Max Points             =            256
    Max Functions          =            125

   => Loading Basis Set <=

    Name: (DEF2-SV(P) AUX)
    Role: JKFIT
    Keyword: DF_BASIS_SCF
    atoms 1-7  entry C          line   203 file /usr/share/psi4/basis/def2-sv_p_-jkfit.gbs 
    atoms 8-21 entry H          line    23 file /usr/share/psi4/basis/def2-sv_p_-jkfit.gbs 

  ==> Pre-Iterations <==

   -------------------------------------------------------
    Irrep   Nso     Nmo     Nalpha   Nbeta   Ndocc  Nsocc
   -------------------------------------------------------
     A        126     126       0       0       0       0
   -------------------------------------------------------
    Total     126     126      28      28      28       0
   -------------------------------------------------------

  ==> Integral Setup <==

  ==> DiskDFJK: Density-Fitted J/K Matrices <==

    J tasked:                  Yes
    K tasked:                  Yes
    wK tasked:                  No
    OpenMP threads:              4
    Integrals threads:           4
    Memory [MiB]:             1448
    Algorithm:                Core
    Integral Cache:           NONE
    Schwarz Cutoff:          1E-12
    Fitting Condition:       1E-10

   => Auxiliary Basis Set <=

  Basis Set: (DEF2-SV(P) AUX)
    Blend: DEF2-SV_P_-JKFIT
    Number of shells: 259
    Number of basis function: 777
    Number of Cartesian functions: 903
    Spherical Harmonics?: true
    Max angular momentum: 4

  Cached 100.0% of DFT collocation blocks in 1.379 [GiB].

  Minimum eigenvalue in the overlap matrix is 7.9463669131E-04.
  Using Symmetric Orthogonalization.

  SCF Guess: Superposition of Atomic Densities via on-the-fly atomic UHF.

  ==> Iterations <==

                           Total Energy        Delta E     RMS |[F,P]|

   @DF-RKS iter SAD:  -274.32143221974962   -2.74321e+02   0.00000e+00 
   @DF-RKS iter   1:  -274.03332413461152    2.88108e-01   8.13095e-03 DIIS
   @DF-RKS iter   2:  -273.71331354029826    3.20011e-01   1.02289e-02 DIIS
   @DF-RKS iter   3:  -274.61391369025500   -9.00600e-01   8.12941e-04 DIIS
   @DF-RKS iter   4:  -274.61814622168788   -4.23253e-03   3.13309e-04 DIIS
   @DF-RKS iter   5:  -274.61886402429457   -7.17803e-04   8.06748e-05 DIIS
   @DF-RKS iter   6:  -274.61891498786196   -5.09636e-05   8.53460e-06 DIIS
   @DF-RKS iter   7:  -274.61891554558883   -5.57727e-07   3.33780e-06 DIIS
   @DF-RKS iter   8:  -274.61891563337912   -8.77903e-08   7.32032e-07 DIIS
  Energy and wave function converged.


  ==> Post-Iterations <==

    Orbital Energies [Eh]
    ---------------------

    Doubly Occupied:                                                      

       1A    -10.225518     2A    -10.216075     3A    -10.215993  
       4A    -10.215923     5A    -10.214914     6A    -10.214718  
       7A    -10.208999     8A     -0.854243     9A     -0.775930  
      10A     -0.751471    11A     -0.685533    12A     -0.629209  
      13A     -0.596526    14A     -0.530443    15A     -0.503338  
      16A     -0.489243    17A     -0.451622    18A     -0.426687  
      19A     -0.411083    20A     -0.400911    21A     -0.385117  
      22A     -0.370546    23A     -0.365595    24A     -0.358563  
      25A     -0.346024    26A     -0.308079    27A     -0.305382  
      28A     -0.303227  

    Virtual:                                                              

      29A      0.059822    30A      0.080173    31A      0.093940  
      32A      0.112417    33A      0.124698    34A      0.134981  
      35A      0.138582    36A      0.144536    37A      0.154763  
      38A      0.161408    39A      0.169088    40A      0.184120  
      41A      0.190916    42A      0.195178    43A      0.217400  
      44A      0.219194    45A      0.247972    46A      0.272176  
      47A      0.284782    48A      0.308587    49A      0.322212  
      50A      0.431612    51A      0.443145    52A      0.457501  
      53A      0.460548    54A      0.484953    55A      0.497906  
      56A      0.504398    57A      0.572372    58A      0.614856  
      59A      0.633542    60A      0.640885    61A      0.649146  
      62A      0.660446    63A      0.675001    64A      0.681629  
      65A      0.695715    66A      0.706119    67A      0.717337  
      68A      0.722806    69A      0.727168    70A      0.732754  
      71A      0.733808    72A      0.739683    73A      0.746139  
      74A      0.755640    75A      0.757211    76A      0.767054  
      77A      0.769750    78A      0.772911    79A      0.776635  
      80A      0.791512    81A      0.800081    82A      0.845125  
      83A      0.852868    84A      0.974524    85A      1.010848  
      86A      1.062621    87A      1.091544    88A      1.106437  
      89A      1.200638    90A      1.310194    91A      1.346108  
      92A      1.422190    93A      1.455746    94A      1.636845  
      95A      1.705553    96A      1.710073    97A      1.759827  
      98A      1.771687    99A      1.794708   100A      1.838897  
     101A      1.884905   102A      1.909793   103A      1.947392  
     104A      1.961814   105A      2.001211   106A      2.030120  
     107A      2.050494   108A      2.087718   109A      2.096317  
     110A      2.144566   111A      2.184027   112A      2.216959  
     113A      2.235731   114A      2.311141   115A      2.335432  
     116A      2.344322   117A      2.404142   118A      2.427426  
     119A      2.481885   120A      2.492507   121A      2.537066  
     122A      2.641729   123A      2.703410   124A      2.712427  
     125A      2.769774   126A      2.810237  

    Final Occupation by Irrep:
              A 
    DOCC [    28 ]

  @DF-RKS Final Energy:  -274.61891563337912

   => Energetics <=

    Nuclear Repulsion Energy =            331.7325410937559695
    One-Electron Energy =               -1025.9023980252936781
    Two-Electron Energy =                 452.1481601671918042
    DFT Exchange-Correlation Energy =     -32.5972188690333127
    Empirical Dispersion Energy =           0.0000000000000000
    VV10 Nonlocal Energy =                  0.0000000000000000
    Total Energy =                       -274.6189156333791743

Computation Completed

  //>>>>>>>>>>>>>>>>>>>>>>>>>>>>>>>>>>>//
  //                PBE0               //
  //<<<<<<<<<<<<<<<<<<<<<<<<<<<<<<<<<<<//

   => Loading Basis Set <=

    Name: DEF2-QZVP
    Role: ORBITAL
    Keyword: BASIS
    atoms 1-7  entry C          line   194 file /usr/share/psi4/basis/def2-qzvp.gbs 
    atoms 8-21 entry H          line    15 file /usr/share/psi4/basis/def2-qzvp.gbs 


         ---------------------------------------------------------
                                   SCF
               by Justin Turney, Rob Parrish, Andy Simmonett
                          and Daniel G. A. Smith
                              RKS Reference
                        4 Threads,   3814 MiB Core
         ---------------------------------------------------------

  ==> Geometry <==

    Molecular point group: c1
    Full point group: C1

    Geometry (in Angstrom), charge = 0, multiplicity = 1:

       Center              X                  Y                   Z               Mass       
    ------------   -----------------  -----------------  -----------------  -----------------
         C            1.084971736591    -0.097833861893    -0.426580743523    12.000000000000
         C            0.269497527991    -1.263450720993     0.151415323277    12.000000000000
         C            0.206884612791     1.158858271507    -0.583665932923    12.000000000000
         C           -1.177021575609    -1.214389133993    -0.315793693823    12.000000000000
         C           -0.907077544509     1.192177777907     0.452275608877    12.000000000000
         C           -1.884538770909     0.030379634207     0.237213672877    12.000000000000
         C            2.316510169191     0.175047307707     0.423959341677    12.000000000000
         H            1.426357970991    -0.393595618293    -1.425824782523     1.007825032230
         H            0.293619496091    -1.216685634893     1.247675586977     1.007825032230
         H            0.739351314391    -2.213262088993    -0.120318085823     1.007825032230
         H           -0.241895056109     1.178654566707    -1.582905347923     1.007825032230
         H            0.830188789491     2.055599819707    -0.513080174823     1.007825032230
         H           -1.714306653309    -2.118904661493    -0.018605558623     1.007825032230
         H           -1.192550900509    -1.198990006193    -1.411434181923     1.007825032230
         H           -1.439663857309     2.146375733807     0.419073369977     1.007825032230
         H           -0.466568313509     1.128781929107     1.453425708577     1.007825032230
         H           -2.679026005809     0.335946331607    -0.450521768123     1.007825032230
         H           -2.376820333409    -0.211335339993     1.184223570777     1.007825032230
         H            2.908448451291    -0.733247690193     0.568400205277     1.007825032230
         H            2.962100133691     0.927191725507    -0.037026830923     1.007825032230
         H            2.031593578791     0.542209751607     1.415335483777     1.007825032230

  Running in c1 symmetry.

  Rotational constants: A =      0.13631  B =      0.07599  C =      0.05808 [cm^-1]
  Rotational constants: A =   4086.50420  B =   2278.24494  C =   1741.15238 [MHz]
  Nuclear repulsion =  331.732541093755970

  Charge       = 0
  Multiplicity = 1
  Electrons    = 56
  Nalpha       = 28
  Nbeta        = 28

  ==> Algorithm <==

  SCF Algorithm Type is DF.
  DIIS enabled.
  MOM disabled.
  Fractional occupation disabled.
  Guess Type is SAD.
  Energy threshold   = 1.00e-06
  Density threshold  = 1.00e-06
  Integral threshold = 0.00e+00

  ==> Primary Basis <==

  Basis Set: DEF2-QZVP
    Blend: DEF2-QZVP
    Number of shells: 259
    Number of basis function: 819
    Number of Cartesian functions: 994
    Spherical Harmonics?: true
    Max angular momentum: 4

  ==> DFT Potential <==

   => Composite Functional: PBE0 <= 

    PBE0 Hyb-GGA Exchange-Correlation Functional

    C. Adamo and V. Barone, J. Chem. Phys. 110, 6158 (1999)
    M. Ernzerhof and G. E. Scuseria, J. Chem. Phys. 110, 5029 (1999)

    Deriv               =              1
    GGA                 =           TRUE
    Meta                =          FALSE

    Exchange Hybrid     =           TRUE
    MP2 Hybrid          =          FALSE

   => Exchange Functionals <=

    0.7500   Perdew, Burke & Ernzerhof

   => Exact (HF) Exchange <=

    0.2500               HF 

   => Correlation Functionals <=

    1.0000   Perdew, Burke & Ernzerhof

   => Molecular Quadrature <=

    Radial Scheme          =       TREUTLER
    Pruning Scheme         =           FLAT
    Nuclear Scheme         =       TREUTLER

    BS radius alpha        =              1
    Pruning alpha          =              1
    Radial Points          =             75
    Spherical Points       =            302
    Total Points           =         474030
    Total Blocks           =           3456
    Max Points             =            256
    Max Functions          =            723

   => Loading Basis Set <=

    Name: (DEF2-QZVP AUX)
    Role: JKFIT
    Keyword: DF_BASIS_SCF
    atoms 1-7  entry C          line   203 file /usr/share/psi4/basis/def2-qzvp-jkfit.gbs 
    atoms 8-21 entry H          line    23 file /usr/share/psi4/basis/def2-qzvp-jkfit.gbs 


  Computing basis projection from DEF2-SV(P) to DEF2-QZVP

  ==> Pre-Iterations <==

   -------------------------------------------------------
    Irrep   Nso     Nmo     Nalpha   Nbeta   Ndocc  Nsocc
   -------------------------------------------------------
     A        819     819       0       0       0       0
   -------------------------------------------------------
    Total     819     819      28      28      28       0
   -------------------------------------------------------

  ==> Integral Setup <==

  ==> DiskDFJK: Density-Fitted J/K Matrices <==

    J tasked:                  Yes
    K tasked:                  Yes
    wK tasked:                  No
    OpenMP threads:              4
    Integrals threads:           4
    Memory [MiB]:             1834
    Algorithm:                Disk
    Integral Cache:           NONE
    Schwarz Cutoff:          1E-12
    Fitting Condition:       1E-10

   => Auxiliary Basis Set <=

  Basis Set: (DEF2-QZVP AUX)
    Blend: DEF2-QZVP-JKFIT
    Number of shells: 259
    Number of basis function: 777
    Number of Cartesian functions: 903
    Spherical Harmonics?: true
    Max angular momentum: 4

  Cached 16.7% of DFT collocation blocks in 1.070 [GiB].

  Minimum eigenvalue in the overlap matrix is 9.2768682662E-06.
  Using Symmetric Orthogonalization.

  SCF Guess: Orbitals guess was supplied from a previous computation.

  ==> Iterations <==

                           Total Energy        Delta E     RMS |[F,P]|

   @DF-RKS iter   0:  -274.73304977152844   -2.74733e+02   3.69330e-03 
   @DF-RKS iter   1:  -274.95543596590210   -2.22386e-01   5.67428e-05 DIIS
   @DF-RKS iter   2:  -274.95538136466507    5.46012e-05   5.53483e-05 DIIS
   @DF-RKS iter   3:  -274.95637926874593   -9.97904e-04   1.19577e-05 DIIS
   @DF-RKS iter   4:  -274.95642212955505   -4.28608e-05   3.31754e-06 DIIS
   @DF-RKS iter   5:  -274.95642539824507   -3.26869e-06   5.82685e-07 DIIS
   @DF-RKS iter   6:  -274.95642549839647   -1.00151e-07   1.13272e-07 DIIS
  Energy and wave function converged.


  ==> Post-Iterations <==

    Orbital Energies [Eh]
    ---------------------

    Doubly Occupied:                                                      

       1A    -10.220015     2A    -10.211588     3A    -10.211280  
       4A    -10.211167     5A    -10.210082     6A    -10.209915  
       7A    -10.204871     8A     -0.859392     9A     -0.781926  
      10A     -0.757427    11A     -0.691525    12A     -0.633597  
      13A     -0.601010    14A     -0.533656    15A     -0.501868  
      16A     -0.487627    17A     -0.449894    18A     -0.425445  
      19A     -0.409423    20A     -0.399309    21A     -0.382745  
      22A     -0.368583    23A     -0.363521    24A     -0.356627  
      25A     -0.344044    26A     -0.305954    27A     -0.303282  
      28A     -0.301102  

    Virtual:                                                              

      29A      0.026471    30A      0.037728    31A      0.045933  
      32A      0.055486    33A      0.074617    34A      0.075634  
      35A      0.081084    36A      0.084484    37A      0.091276  
      38A      0.106207    39A      0.112238    40A      0.116490  
      41A      0.131595    42A      0.133961    43A      0.143603  
      44A      0.150842    45A      0.166711    46A      0.175836  
      47A      0.182961    48A      0.190290    49A      0.193632  
      50A      0.199803    51A      0.201237    52A      0.218814  
      53A      0.221088    54A      0.234109    55A      0.248205  
      56A      0.259455    57A      0.261568    58A      0.278292  
      59A      0.284629    60A      0.289724    61A      0.297497  
      62A      0.300540    63A      0.304108    64A      0.311348  
      65A      0.315179    66A      0.325838    67A      0.330468  
      68A      0.336801    69A      0.339366    70A      0.341556  
      71A      0.345694    72A      0.355959    73A      0.361133  
      74A      0.366891    75A      0.368384    76A      0.374153  
      77A      0.381462    78A      0.387235    79A      0.395421  
      80A      0.409092    81A      0.415360    82A      0.432643  
      83A      0.459988    84A      0.485858    85A      0.498877  
      86A      0.506866    87A      0.522508    88A      0.542994  
      89A      0.555325    90A      0.559650    91A      0.570253  
      92A      0.572677    93A      0.578742    94A      0.590015  
      95A      0.595704    96A      0.604572    97A      0.613209  
      98A      0.622420    99A      0.630020   100A      0.638868  
     101A      0.646361   102A      0.650950   103A      0.656338  
     104A      0.670742   105A      0.683765   106A      0.706724  
     107A      0.717389   108A      0.723548   109A      0.747419  
     110A      0.758968   111A      0.780901   112A      0.790206  
     113A      0.796862   114A      0.800641   115A      0.804276  
     116A      0.810888   117A      0.819984   118A      0.834954  
     119A      0.837502   120A      0.844060   121A      0.849923  
     122A      0.858908   123A      0.864635   124A      0.873097  
     125A      0.875697   126A      0.880087   127A      0.886300  
     128A      0.893536   129A      0.896343   130A      0.903494  
     131A      0.913661   132A      0.919004   133A      0.925288  
     134A      0.931258   135A      0.942817   136A      0.948966  
     137A      0.961000   138A      0.968196   139A      0.974550  
     140A      0.988064   141A      0.997112   142A      1.004376  
     143A      1.009115   144A      1.027536   145A      1.038372  
     146A      1.045261   147A      1.058334   148A      1.070148  
     149A      1.079150   150A      1.110355   151A      1.115002  
     152A      1.126947   153A      1.136746   154A      1.144110  
     155A      1.156492   156A      1.164940   157A      1.171679  
     158A      1.179159   159A      1.193710   160A      1.199874  
     161A      1.205897   162A      1.227168   163A      1.234899  
     164A      1.242084   165A      1.250689   166A      1.264095  
     167A      1.277620   168A      1.297236   169A      1.309556  
     170A      1.320199   171A      1.333762   172A      1.352535  
     173A      1.362292   174A      1.379316   175A      1.382055  
     176A      1.398236   177A      1.410374   178A      1.432100  
     179A      1.435008   180A      1.454006   181A      1.464441  
     182A      1.477939   183A      1.484770   184A      1.500414  
     185A      1.507956   186A      1.517004   187A      1.519509  
     188A      1.533985   189A      1.550621   190A      1.564925  
     191A      1.570976   192A      1.583181   193A      1.600346  
     194A      1.609618   195A      1.634523   196A      1.645158  
     197A      1.666952   198A      1.695699   199A      1.702490  
     200A      1.715084   201A      1.733359   202A      1.739295  
     203A      1.764047   204A      1.780988   205A      1.799098  
     206A      1.814357   207A      1.821802   208A      1.847271  
     209A      1.851047   210A      1.863145   211A      1.889965  
     212A      1.912047   213A      1.917275   214A      1.931102  
     215A      1.946005   216A      1.972899   217A      1.977551  
     218A      1.982889   219A      1.999197   220A      2.012933  
     221A      2.023500   222A      2.030806   223A      2.038955  
     224A      2.041697   225A      2.053127   226A      2.059383  
     227A      2.071472   228A      2.085028   229A      2.087707  
     230A      2.095252   231A      2.117385   232A      2.122937  
     233A      2.125220   234A      2.136757   235A      2.142333  
     236A      2.147958   237A      2.163183   238A      2.164026  
     239A      2.171431   240A      2.183579   241A      2.191380  
     242A      2.197737   243A      2.205210   244A      2.207591  
     245A      2.227457   246A      2.241642   247A      2.243913  
     248A      2.254522   249A      2.273178   250A      2.280218  
     251A      2.286558   252A      2.303256   253A      2.311164  
     254A      2.323538   255A      2.330199   256A      2.333447  
     257A      2.356668   258A      2.357306   259A      2.364034  
     260A      2.366902   261A      2.368325   262A      2.399640  
     263A      2.408622   264A      2.416030   265A      2.423238  
     266A      2.439246   267A      2.440575   268A      2.461600  
     269A      2.469608   270A      2.493158   271A      2.500639  
     272A      2.504785   273A      2.521358   274A      2.527227  
     275A      2.540492   276A      2.553253   277A      2.563361  
     278A      2.567696   279A      2.580539   280A      2.596055  
     281A      2.603213   282A      2.613261   283A      2.618628  
     284A      2.626171   285A      2.632197   286A      2.644371  
     287A      2.651728   288A      2.659901   289A      2.687001  
     290A      2.695520   291A      2.715936   292A      2.722555  
     293A      2.729806   294A      2.740870   295A      2.752639  
     296A      2.759600   297A      2.768155   298A      2.779355  
     299A      2.783961   300A      2.800657   301A      2.815138  
     302A      2.828549   303A      2.830511   304A      2.848250  
     305A      2.862618   306A      2.873643   307A      2.886432  
     308A      2.908507   309A      2.912666   310A      2.914120  
     311A      2.923348   312A      2.935341   313A      2.944238  
     314A      2.949472   315A      2.961776   316A      2.968316  
     317A      2.977109   318A      2.985572   319A      2.999041  
     320A      3.005860   321A      3.013691   322A      3.019670  
     323A      3.030332   324A      3.037042   325A      3.040363  
     326A      3.052571   327A      3.062472   328A      3.075561  
     329A      3.100803   330A      3.114328   331A      3.130397  
     332A      3.135988   333A      3.144375   334A      3.157814  
     335A      3.166968   336A      3.173291   337A      3.188773  
     338A      3.204333   339A      3.227021   340A      3.232711  
     341A      3.246935   342A      3.251046   343A      3.259228  
     344A      3.274502   345A      3.296007   346A      3.322614  
     347A      3.324161   348A      3.325292   349A      3.337907  
     350A      3.354548   351A      3.363411   352A      3.384823  
     353A      3.401021   354A      3.424680   355A      3.429965  
     356A      3.433143   357A      3.465462   358A      3.474043  
     359A      3.476324   360A      3.493159   361A      3.498906  
     362A      3.505170   363A      3.532162   364A      3.540252  
     365A      3.545049   366A      3.567145   367A      3.586649  
     368A      3.603192   369A      3.610915   370A      3.618039  
     371A      3.648737   372A      3.658005   373A      3.662219  
     374A      3.674138   375A      3.694319   376A      3.704119  
     377A      3.716163   378A      3.729468   379A      3.748599  
     380A      3.760146   381A      3.777892   382A      3.787331  
     383A      3.806569   384A      3.819536   385A      3.842217  
     386A      3.857513   387A      3.863032   388A      3.888388  
     389A      3.892966   390A      3.909402   391A      3.936270  
     392A      3.942412   393A      3.949342   394A      3.974182  
     395A      3.982633   396A      4.004019   397A      4.008606  
     398A      4.022243   399A      4.032346   400A      4.039970  
     401A      4.085245   402A      4.086074   403A      4.098353  
     404A      4.100231   405A      4.127939   406A      4.154705  
     407A      4.173578   408A      4.205992   409A      4.223638  
     410A      4.249546   411A      4.305236   412A      4.330582  
     413A      4.403485   414A      4.450120   415A      4.470436  
     416A      4.507573   417A      4.547821   418A      4.604948  
     419A      4.643190   420A      4.703182   421A      4.771656  
     422A      4.828578   423A      4.849177   424A      4.869869  
     425A      4.880951   426A      4.891051   427A      4.935762  
     428A      4.958012   429A      4.983795   430A      5.042767  
     431A      5.073867   432A      5.148722   433A      5.181625  
     434A      5.198210   435A      5.247494   436A      5.262758  
     437A      5.306337   438A      5.313440   439A      5.320031  
     440A      5.413131   441A      5.435480   442A      5.457163  
     443A      5.472486   444A      5.500244   445A      5.530448  
     446A      5.540569   447A      5.557965   448A      5.572350  
     449A      5.601825   450A      5.638678   451A      5.657233  
     452A      5.680369   453A      5.700084   454A      5.730668  
     455A      5.734712   456A      5.752664   457A      5.766593  
     458A      5.783193   459A      5.786661   460A      5.809382  
     461A      5.823943   462A      5.839339   463A      5.847297  
     464A      5.866650   465A      5.869468   466A      5.893680  
     467A      5.903222   468A      5.909655   469A      5.924942  
     470A      5.934686   471A      5.944808   472A      5.954111  
     473A      5.961399   474A      5.972958   475A      5.984138  
     476A      5.986193   477A      5.992832   478A      6.003392  
     479A      6.011668   480A      6.033481   481A      6.044646  
     482A      6.064469   483A      6.070647   484A      6.081305  
     485A      6.087784   486A      6.099091   487A      6.110720  
     488A      6.112845   489A      6.128049   490A      6.142366  
     491A      6.144404   492A      6.155880   493A      6.170288  
     494A      6.172105   495A      6.177272   496A      6.191950  
     497A      6.202235   498A      6.209883   499A      6.215594  
     500A      6.236864   501A      6.245241   502A      6.251339  
     503A      6.272283   504A      6.275124   505A      6.285294  
     506A      6.300802   507A      6.307655   508A      6.325216  
     509A      6.331844   510A      6.337185   511A      6.360300  
     512A      6.367159   513A      6.367269   514A      6.386992  
     515A      6.390639   516A      6.402309   517A      6.408694  
     518A      6.422884   519A      6.427312   520A      6.432572  
     521A      6.446536   522A      6.464641   523A      6.470769  
     524A      6.498956   525A      6.503829   526A      6.514259  
     527A      6.524513   528A      6.529170   529A      6.539313  
     530A      6.547530   531A      6.550251   532A      6.569530  
     533A      6.584602   534A      6.600475   535A      6.616177  
     536A      6.624278   537A      6.636811   538A      6.648953  
     539A      6.654676   540A      6.658279   541A      6.683258  
     542A      6.695223   543A      6.708813   544A      6.714222  
     545A      6.724717   546A      6.737646   547A      6.760238  
     548A      6.773032   549A      6.793189   550A      6.804459  
     551A      6.816403   552A      6.829529   553A      6.834960  
     554A      6.843919   555A      6.873789   556A      6.875162  
     557A      6.896314   558A      6.903856   559A      6.920852  
     560A      6.929327   561A      6.942534   562A      6.953824  
     563A      6.959685   564A      6.972088   565A      6.984643  
     566A      6.989801   567A      6.999555   568A      7.022513  
     569A      7.038325   570A      7.055052   571A      7.076530  
     572A      7.084554   573A      7.108800   574A      7.128530  
     575A      7.141897   576A      7.150996   577A      7.156284  
     578A      7.189635   579A      7.210837   580A      7.224517  
     581A      7.242973   582A      7.250785   583A      7.278875  
     584A      7.292542   585A      7.312937   586A      7.334089  
     587A      7.340252   588A      7.352456   589A      7.382251  
     590A      7.396844   591A      7.422108   592A      7.423704  
     593A      7.443612   594A      7.448629   595A      7.461439  
     596A      7.472474   597A      7.492029   598A      7.494469  
     599A      7.513754   600A      7.536692   601A      7.558149  
     602A      7.569420   603A      7.571841   604A      7.588915  
     605A      7.604037   606A      7.610375   607A      7.614713  
     608A      7.636808   609A      7.657412   610A      7.659941  
     611A      7.679717   612A      7.692184   613A      7.700845  
     614A      7.714507   615A      7.720745   616A      7.728866  
     617A      7.737918   618A      7.751059   619A      7.755210  
     620A      7.760740   621A      7.768880   622A      7.790182  
     623A      7.810214   624A      7.811538   625A      7.835743  
     626A      7.839887   627A      7.857599   628A      7.873192  
     629A      7.877757   630A      7.885220   631A      7.900594  
     632A      7.901189   633A      7.909050   634A      7.916899  
     635A      7.941821   636A      7.948298   637A      7.957883  
     638A      7.965166   639A      7.982318   640A      7.997228  
     641A      7.998709   642A      8.014894   643A      8.019989  
     644A      8.029329   645A      8.039310   646A      8.053507  
     647A      8.061285   648A      8.078091   649A      8.097846  
     650A      8.103109   651A      8.118201   652A      8.124279  
     653A      8.129781   654A      8.141511   655A      8.157428  
     656A      8.170111   657A      8.189523   658A      8.199458  
     659A      8.212660   660A      8.240022   661A      8.248515  
     662A      8.267014   663A      8.291010   664A      8.303326  
     665A      8.308448   666A      8.322432   667A      8.344829  
     668A      8.350499   669A      8.377461   670A      8.391006  
     671A      8.397261   672A      8.407664   673A      8.439096  
     674A      8.447963   675A      8.454991   676A      8.466419  
     677A      8.486808   678A      8.496603   679A      8.502858  
     680A      8.517155   681A      8.526990   682A      8.549120  
     683A      8.556268   684A      8.558648   685A      8.576565  
     686A      8.579837   687A      8.597127   688A      8.605107  
     689A      8.618545   690A      8.636774   691A      8.639010  
     692A      8.652116   693A      8.660447   694A      8.670970  
     695A      8.683608   696A      8.686109   697A      8.696100  
     698A      8.698284   699A      8.706509   700A      8.723543  
     701A      8.734311   702A      8.743653   703A      8.751732  
     704A      8.769893   705A      8.788797   706A      8.796476  
     707A      8.799494   708A      8.821720   709A      8.828028  
     710A      8.849356   711A      8.877102   712A      8.894767  
     713A      8.911279   714A      8.922472   715A      8.940833  
     716A      8.952827   717A      8.960505   718A      8.982683  
     719A      8.985507   720A      9.005178   721A      9.026994  
     722A      9.041204   723A      9.046500   724A      9.070752  
     725A      9.091594   726A      9.107331   727A      9.111921  
     728A      9.133767   729A      9.142380   730A      9.167831  
     731A      9.179055   732A      9.214375   733A      9.230311  
     734A      9.242290   735A      9.249661   736A      9.262964  
     737A      9.284708   738A      9.303578   739A      9.324533  
     740A      9.355928   741A      9.378376   742A      9.431183  
     743A      9.488527   744A      9.555005   745A      9.592338  
     746A      9.604438   747A      9.616920   748A      9.667974  
     749A      9.727498   750A      9.738371   751A      9.791024  
     752A      9.803728   753A      9.822641   754A      9.844254  
     755A      9.868602   756A      9.902209   757A      9.904057  
     758A      9.924829   759A      9.945701   760A      9.962789  
     761A      9.976593   762A      9.984434   763A     10.008992  
     764A     10.027235   765A     10.058876   766A     10.069615  
     767A     10.091401   768A     10.107543   769A     10.124590  
     770A     10.148307   771A     10.179124   772A     10.184904  
     773A     10.187006   774A     10.206643   775A     10.229990  
     776A     10.270183   777A     10.278257   778A     10.286556  
     779A     10.290435   780A     10.308847   781A     10.328975  
     782A     10.349182   783A     10.363732   784A     10.447814  
     785A     10.465535   786A     10.541821   787A     10.559347  
     788A     10.595194   789A     10.637435   790A     10.640934  
     791A     10.733156   792A     12.150263   793A     12.300308  
     794A     12.427516   795A     12.482777   796A     12.497034  
     797A     12.568723   798A     12.686473   799A     13.089861  
     800A     13.182643   801A     13.212584   802A     13.248378  
     803A     13.301378   804A     13.330523   805A     13.374434  
     806A     29.126177   807A     29.177020   808A     29.193270  
     809A     29.214384   810A     29.236306   811A     29.286068  
     812A     29.293996   813A    148.370781   814A    148.418313  
     815A    148.440058   816A    148.473598   817A    148.494074  
     818A    148.536254   819A    148.577069  

    Final Occupation by Irrep:
              A 
    DOCC [    28 ]

  @DF-RKS Final Energy:  -274.95642549839647

   => Energetics <=

    Nuclear Repulsion Energy =            331.7325410937559695
    One-Electron Energy =               -1026.5820056355694305
    Two-Electron Energy =                 452.5470543679763864
    DFT Exchange-Correlation Energy =     -32.6540153245594453
    Empirical Dispersion Energy =           0.0000000000000000
    VV10 Nonlocal Energy =                  0.0000000000000000
    Total Energy =                       -274.9564254983964702

Computation Completed


Properties will be evaluated at   0.000000,   0.000000,   0.000000 [a0]

Properties computed using the SCF density matrix

  Nuclear Dipole Moment: [e a0]
     X:     1.0132      Y:     0.2144      Z:     0.6829

  Electronic Dipole Moment: [e a0]
     X:    -1.0328      Y:    -0.2271      Z:    -0.7194

  Dipole Moment: [e a0]
     X:    -0.0195      Y:    -0.0126      Z:    -0.0365     Total:     0.0433

  Dipole Moment: [D]
     X:    -0.0496      Y:    -0.0321      Z:    -0.0928     Total:     0.1101


*** tstop() called on thinkpad at Sat Jul 10 14:39:10 2021
Module time:
	user time   =     519.41 seconds =       8.66 minutes
	system time =      16.45 seconds =       0.27 minutes
	total time  =        153 seconds =       2.55 minutes
Total time:
	user time   =     519.41 seconds =       8.66 minutes
	system time =      16.45 seconds =       0.27 minutes
	total time  =        153 seconds =       2.55 minutes

    Psi4 stopped on: Saturday, 10 July 2021 02:39PM
    Psi4 wall time for execution: 0:02:33.03

*** Psi4 exiting successfully. Buy a developer a beer!
