
    -----------------------------------------------------------------------
          Psi4: An Open-Source Ab Initio Electronic Structure Package
                               Psi4 1.3.2 release

                         Git: Rev {} zzzzzzz 


    R. M. Parrish, L. A. Burns, D. G. A. Smith, A. C. Simmonett,
    A. E. DePrince III, E. G. Hohenstein, U. Bozkaya, A. Yu. Sokolov,
    R. Di Remigio, R. M. Richard, J. F. Gonthier, A. M. James,
    H. R. McAlexander, A. Kumar, M. Saitow, X. Wang, B. P. Pritchard,
    P. Verma, H. F. Schaefer III, K. Patkowski, R. A. King, E. F. Valeev,
    F. A. Evangelista, J. M. Turney, T. D. Crawford, and C. D. Sherrill,
    J. Chem. Theory Comput. 13(7) pp 3185--3197 (2017).
    (doi: 10.1021/acs.jctc.7b00174)


                         Additional Contributions by
    P. Kraus, H. Kruse, M. H. Lechner, M. C. Schieber, R. A. Shaw,
    A. Alenaizan, R. Galvelis, Z. L. Glick, S. Lehtola, and J. P. Misiewicz

    -----------------------------------------------------------------------


    Psi4 started on: Saturday, 10 July 2021 02:04PM

    Process ID: 1415826
    Host:       thinkpad
    PSIDATADIR: /usr/share/psi4
    Memory:     500.0 MiB
    Threads:    4
    
  ==> Input File <==

--------------------------------------------------------------------------
# PBE0/def2-SVP calculation on methylcyclohexane conformer #2 

memory 4 gb

molecule {
	    C     1.1134865843   0.0000601954  -0.5089087087
	    C     0.2420390682  -1.2537944021  -0.6238873628
	    C     0.2419792809   1.2538864618  -0.6237263195
	    C    -0.9258572029  -1.2569882693   0.3558910830
	    C    -0.9259138945   1.2568971843   0.3560562668
	    C    -1.7733690349  -0.0000550116   0.2075092045
	    C     1.9635709761  -0.0000025329   0.7567259476
	    H     1.8061401493   0.0001327039  -1.3591629729
	    H     0.8576836072  -2.1486699828  -0.4840861569
	    H    -0.1585149026  -1.3093741874  -1.6437935277
	    H    -0.1585790029   1.3095789194  -1.6436251076
	    H     0.8575801387   2.1487740172  -0.4838101972
	    H    -0.5514675761  -1.3224818821   1.3841297174
	    H    -1.5391270338  -2.1494848733   0.1983433729
	    H    -1.5392235832   2.1493868985   0.1986268789
	    H    -0.5515253450   1.3222722530   1.3843032168
	    H    -2.2443701954  -0.0000005041  -0.7841454961
	    H    -2.5878224306  -0.0001216243   0.9383495019
	    H     2.6072342236  -0.8831213151   0.7928829721
	    H     2.6071600769   0.8831643837   0.7930175612
	    H     1.3576335979  -0.0000979747   1.6655635342
}

set basis def2-SVP
energy('pbe0')
--------------------------------------------------------------------------

  Memory set to   3.725 GiB by Python driver.

*** tstart() called on thinkpad
*** at Sat Jul 10 14:04:01 2021

   => Loading Basis Set <=

    Name: DEF2-SVP
    Role: ORBITAL
    Keyword: BASIS
    atoms 1-7  entry C          line    90 file /usr/share/psi4/basis/def2-svp.gbs 
    atoms 8-21 entry H          line    15 file /usr/share/psi4/basis/def2-svp.gbs 


         ---------------------------------------------------------
                                   SCF
               by Justin Turney, Rob Parrish, Andy Simmonett
                          and Daniel G. A. Smith
                              RKS Reference
                        4 Threads,   3814 MiB Core
         ---------------------------------------------------------

  ==> Geometry <==

    Molecular point group: c1
    Full point group: C1

    Geometry (in Angstrom), charge = 0, multiplicity = 1:

       Center              X                  Y                   Z               Mass       
    ------------   -----------------  -----------------  -----------------  -----------------
         C            1.113486584316     0.000060195387    -0.508908708712    12.000000000000
         C            0.242039068216    -1.253794402113    -0.623887362812    12.000000000000
         C            0.241979280916     1.253886461787    -0.623726319512    12.000000000000
         C           -0.925857202884    -1.256988269313     0.355891082988    12.000000000000
         C           -0.925913894484     1.256897184287     0.356056266788    12.000000000000
         C           -1.773369034884    -0.000055011613     0.207509204488    12.000000000000
         C            1.963570976116    -0.000002532913     0.756725947588    12.000000000000
         H            1.806140149316     0.000132703887    -1.359162972912     1.007825032230
         H            0.857683607216    -2.148669982813    -0.484086156912     1.007825032230
         H           -0.158514902584    -1.309374187413    -1.643793527712     1.007825032230
         H           -0.158579002884     1.309578919387    -1.643625107612     1.007825032230
         H            0.857580138716     2.148774017187    -0.483810197212     1.007825032230
         H           -0.551467576084    -1.322481882113     1.384129717388     1.007825032230
         H           -1.539127033784    -2.149484873313     0.198343372888     1.007825032230
         H           -1.539223583184     2.149386898487     0.198626878888     1.007825032230
         H           -0.551525344984     1.322272252987     1.384303216788     1.007825032230
         H           -2.244370195384    -0.000000504113    -0.784145496112     1.007825032230
         H           -2.587822430584    -0.000121624313     0.938349501888     1.007825032230
         H            2.607234223616    -0.883121315113     0.792882972088     1.007825032230
         H            2.607160076916     0.883164383687     0.793017561188     1.007825032230
         H            1.357633597916    -0.000097974713     1.665563534188     1.007825032230

  Running in c1 symmetry.

  Rotational constants: A =      0.11801  B =      0.08487  C =      0.06449 [cm^-1]
  Rotational constants: A =   3537.89232  B =   2544.37938  C =   1933.21573 [MHz]
  Nuclear repulsion =  333.887771863626710

  Charge       = 0
  Multiplicity = 1
  Electrons    = 56
  Nalpha       = 28
  Nbeta        = 28

  ==> Algorithm <==

  SCF Algorithm Type is DF.
  DIIS enabled.
  MOM disabled.
  Fractional occupation disabled.
  Guess Type is SAD.
  Energy threshold   = 1.00e-06
  Density threshold  = 1.00e-06
  Integral threshold = 0.00e+00

  ==> Primary Basis <==

  Basis Set: DEF2-SVP
    Blend: DEF2-SVP
    Number of shells: 84
    Number of basis function: 168
    Number of Cartesian functions: 175
    Spherical Harmonics?: true
    Max angular momentum: 2

  ==> DFT Potential <==

   => Composite Functional: PBE0 <= 

    PBE0 Hyb-GGA Exchange-Correlation Functional

    C. Adamo and V. Barone, J. Chem. Phys. 110, 6158 (1999)
    M. Ernzerhof and G. E. Scuseria, J. Chem. Phys. 110, 5029 (1999)

    Deriv               =              1
    GGA                 =           TRUE
    Meta                =          FALSE

    Exchange Hybrid     =           TRUE
    MP2 Hybrid          =          FALSE

   => Exchange Functionals <=

    0.7500   Perdew, Burke & Ernzerhof

   => Exact (HF) Exchange <=

    0.2500               HF 

   => Correlation Functionals <=

    1.0000   Perdew, Burke & Ernzerhof

   => Molecular Quadrature <=

    Radial Scheme          =       TREUTLER
    Pruning Scheme         =           FLAT
    Nuclear Scheme         =       TREUTLER

    BS radius alpha        =              1
    Pruning alpha          =              1
    Radial Points          =             75
    Spherical Points       =            302
    Total Points           =         469460
    Total Blocks           =           3430
    Max Points             =            256
    Max Functions          =            167

   => Loading Basis Set <=

    Name: (DEF2-SVP AUX)
    Role: JKFIT
    Keyword: DF_BASIS_SCF
    atoms 1-7  entry C          line   203 file /usr/share/psi4/basis/def2-svp-jkfit.gbs 
    atoms 8-21 entry H          line    23 file /usr/share/psi4/basis/def2-svp-jkfit.gbs 

  ==> Pre-Iterations <==

   -------------------------------------------------------
    Irrep   Nso     Nmo     Nalpha   Nbeta   Ndocc  Nsocc
   -------------------------------------------------------
     A        168     168       0       0       0       0
   -------------------------------------------------------
    Total     168     168      28      28      28       0
   -------------------------------------------------------

  ==> Integral Setup <==

  DFHelper Memory: AOs need 0.172 GiB; user supplied 1.110 GiB. Using in-core AOs.

  ==> MemDFJK: Density-Fitted J/K Matrices <==

    J tasked:                   Yes
    K tasked:                   Yes
    wK tasked:                   No
    OpenMP threads:               4
    Memory [MiB]:              1136
    Algorithm:                 Core
    Schwarz Cutoff:           1E-12
    Mask sparsity (%):       1.3464
    Fitting Condition:        1E-10

   => Auxiliary Basis Set <=

  Basis Set: (DEF2-SVP AUX)
    Blend: DEF2-SVP-JKFIT
    Number of shells: 259
    Number of basis function: 777
    Number of Cartesian functions: 903
    Spherical Harmonics?: true
    Max angular momentum: 4

  Cached 100.0% of DFT collocation blocks in 1.684 [GiB].

  Minimum eigenvalue in the overlap matrix is 1.3731236128E-03.
  Using Symmetric Orthogonalization.

  SCF Guess: Superposition of Atomic Densities via on-the-fly atomic UHF.

  ==> Iterations <==

                           Total Energy        Delta E     RMS |[F,P]|

   @DF-RKS iter SAD:  -274.33832918596613   -2.74338e+02   0.00000e+00 
   @DF-RKS iter   1:  -274.07299246562309    2.65337e-01   6.06764e-03 DIIS
   @DF-RKS iter   2:  -273.70962931786710    3.63363e-01   7.88708e-03 DIIS
   @DF-RKS iter   3:  -274.65350787780028   -9.43879e-01   6.39097e-04 DIIS
   @DF-RKS iter   4:  -274.65821095545937   -4.70308e-03   2.20474e-04 DIIS
   @DF-RKS iter   5:  -274.65881728505451   -6.06330e-04   6.82117e-05 DIIS
   @DF-RKS iter   6:  -274.65888101389032   -6.37288e-05   7.97743e-06 DIIS
   @DF-RKS iter   7:  -274.65888188866631   -8.74776e-07   3.07545e-06 DIIS
   @DF-RKS iter   8:  -274.65888202572330   -1.37057e-07   5.69194e-07 DIIS
  Energy and wave function converged.


  ==> Post-Iterations <==

    Orbital Energies [Eh]
    ---------------------

    Doubly Occupied:                                                      

       1A    -10.227235     2A    -10.219925     3A    -10.219802  
       4A    -10.219739     5A    -10.219237     6A    -10.219211  
       7A    -10.215728     8A     -0.853473     9A     -0.774456  
      10A     -0.753148    11A     -0.688398    12A     -0.616541  
      13A     -0.604070    14A     -0.537900    15A     -0.498133  
      16A     -0.458555    17A     -0.456086    18A     -0.437514  
      19A     -0.411732    20A     -0.410445    21A     -0.385597  
      22A     -0.368997    23A     -0.363077    24A     -0.346519  
      25A     -0.341029    26A     -0.314826    27A     -0.301954  
      28A     -0.301903  

    Virtual:                                                              

      29A      0.059443    30A      0.080708    31A      0.100125  
      32A      0.109064    33A      0.126960    34A      0.130727  
      35A      0.145241    36A      0.151065    37A      0.154977  
      38A      0.157750    39A      0.166345    40A      0.179320  
      41A      0.200574    42A      0.205795    43A      0.225110  
      44A      0.233695    45A      0.248356    46A      0.254324  
      47A      0.268872    48A      0.295173    49A      0.295256  
      50A      0.419949    51A      0.430766    52A      0.440646  
      53A      0.450714    54A      0.464593    55A      0.467891  
      56A      0.472440    57A      0.549230    58A      0.613754  
      59A      0.624551    60A      0.632179    61A      0.649644  
      62A      0.651834    63A      0.659241    64A      0.662786  
      65A      0.669416    66A      0.675811    67A      0.681166  
      68A      0.690546    69A      0.700147    70A      0.703769  
      71A      0.709002    72A      0.716255    73A      0.723743  
      74A      0.725629    75A      0.736488    76A      0.738740  
      77A      0.742964    78A      0.755525    79A      0.763766  
      80A      0.768168    81A      0.792583    82A      0.809959  
      83A      0.849752    84A      0.896212    85A      0.978576  
      86A      1.065484    87A      1.090629    88A      1.104577  
      89A      1.152925    90A      1.152955    91A      1.177042  
      92A      1.268180    93A      1.283735    94A      1.284427  
      95A      1.294354    96A      1.308480    97A      1.353294  
      98A      1.384135    99A      1.514743   100A      1.540744  
     101A      1.566031   102A      1.590380   103A      1.625576  
     104A      1.694929   105A      1.725294   106A      1.756740  
     107A      1.761047   108A      1.767187   109A      1.772474  
     110A      1.807356   111A      1.816514   112A      1.829635  
     113A      1.833783   114A      1.834065   115A      1.857505  
     116A      1.861963   117A      1.872413   118A      1.885148  
     119A      1.886774   120A      1.891303   121A      1.904654  
     122A      1.921003   123A      1.932346   124A      1.939543  
     125A      1.940769   126A      1.942166   127A      2.002415  
     128A      2.044893   129A      2.048805   130A      2.053138  
     131A      2.083907   132A      2.100939   133A      2.112581  
     134A      2.116414   135A      2.258369   136A      2.262726  
     137A      2.298916   138A      2.300151   139A      2.315220  
     140A      2.341718   141A      2.393415   142A      2.420385  
     143A      2.487395   144A      2.490292   145A      2.532834  
     146A      2.540031   147A      2.585830   148A      2.600888  
     149A      2.628949   150A      2.636317   151A      2.639468  
     152A      2.679396   153A      2.679519   154A      2.760305  
     155A      2.860817   156A      2.876735   157A      2.917755  
     158A      2.930344   159A      2.964854   160A      2.969016  
     161A      3.007594   162A      3.045307   163A      3.076169  
     164A      3.081293   165A      3.094980   166A      3.112971  
     167A      3.135509   168A      3.199448  

    Final Occupation by Irrep:
              A 
    DOCC [    28 ]

  @DF-RKS Final Energy:  -274.65888202572330

   => Energetics <=

    Nuclear Repulsion Energy =            333.8877718636267105
    One-Electron Energy =               -1030.2804596736459644
    Two-Electron Energy =                 454.3343690197032743
    DFT Exchange-Correlation Energy =     -32.6005632354073782
    Empirical Dispersion Energy =           0.0000000000000000
    VV10 Nonlocal Energy =                  0.0000000000000000
    Total Energy =                       -274.6588820257233010

Computation Completed


Properties will be evaluated at   0.000000,   0.000000,   0.000000 [a0]

Properties computed using the SCF density matrix

  Nuclear Dipole Moment: [e a0]
     X:     0.7151      Y:    -0.0000      Z:     0.8968

  Electronic Dipole Moment: [e a0]
     X:    -0.7121      Y:     0.0000      Z:    -0.9085

  Dipole Moment: [e a0]
     X:     0.0030      Y:     0.0000      Z:    -0.0117     Total:     0.0121

  Dipole Moment: [D]
     X:     0.0076      Y:     0.0000      Z:    -0.0297     Total:     0.0307


*** tstop() called on thinkpad at Sat Jul 10 14:04:15 2021
Module time:
	user time   =      43.46 seconds =       0.72 minutes
	system time =       0.91 seconds =       0.02 minutes
	total time  =         14 seconds =       0.23 minutes
Total time:
	user time   =      43.46 seconds =       0.72 minutes
	system time =       0.91 seconds =       0.02 minutes
	total time  =         14 seconds =       0.23 minutes

    Psi4 stopped on: Saturday, 10 July 2021 02:04PM
    Psi4 wall time for execution: 0:00:14.46

*** Psi4 exiting successfully. Buy a developer a beer!
