
    -----------------------------------------------------------------------
          Psi4: An Open-Source Ab Initio Electronic Structure Package
                               Psi4 1.3.2 release

                         Git: Rev {} zzzzzzz 


    R. M. Parrish, L. A. Burns, D. G. A. Smith, A. C. Simmonett,
    A. E. DePrince III, E. G. Hohenstein, U. Bozkaya, A. Yu. Sokolov,
    R. Di Remigio, R. M. Richard, J. F. Gonthier, A. M. James,
    H. R. McAlexander, A. Kumar, M. Saitow, X. Wang, B. P. Pritchard,
    P. Verma, H. F. Schaefer III, K. Patkowski, R. A. King, E. F. Valeev,
    F. A. Evangelista, J. M. Turney, T. D. Crawford, and C. D. Sherrill,
    J. Chem. Theory Comput. 13(7) pp 3185--3197 (2017).
    (doi: 10.1021/acs.jctc.7b00174)


                         Additional Contributions by
    P. Kraus, H. Kruse, M. H. Lechner, M. C. Schieber, R. A. Shaw,
    A. Alenaizan, R. Galvelis, Z. L. Glick, S. Lehtola, and J. P. Misiewicz

    -----------------------------------------------------------------------


    Psi4 started on: Saturday, 10 July 2021 02:05PM

    Process ID: 1420188
    Host:       thinkpad
    PSIDATADIR: /usr/share/psi4
    Memory:     500.0 MiB
    Threads:    4
    
  ==> Input File <==

--------------------------------------------------------------------------
# PBE0/def2-SVP calculation on methylcyclohexane conformer #6 

memory 4 gb

molecule {
	    C     1.0849717366  -0.0978338619  -0.4265807435
	    C     0.2694975280  -1.2634507210   0.1514153233
	    C     0.2068846128   1.1588582715  -0.5836659329
	    C    -1.1770215756  -1.2143891340  -0.3157936938
	    C    -0.9070775445   1.1921777779   0.4522756089
	    C    -1.8845387709   0.0303796342   0.2372136729
	    C     2.3165101692   0.1750473077   0.4239593417
	    H     1.4263579710  -0.3935956183  -1.4258247825
	    H     0.2936194961  -1.2166856349   1.2476755870
	    H     0.7393513144  -2.2132620890  -0.1203180858
	    H    -0.2418950561   1.1786545667  -1.5829053479
	    H     0.8301887895   2.0555998197  -0.5130801748
	    H    -1.7143066533  -2.1189046615  -0.0186055586
	    H    -1.1925509005  -1.1989900062  -1.4114341819
	    H    -1.4396638573   2.1463757338   0.4190733700
	    H    -0.4665683135   1.1287819291   1.4534257086
	    H    -2.6790260058   0.3359463316  -0.4505217681
	    H    -2.3768203334  -0.2113353400   1.1842235708
	    H     2.9084484513  -0.7332476902   0.5684002053
	    H     2.9621001337   0.9271917255  -0.0370268309
	    H     2.0315935788   0.5422097516   1.4153354838
}

set basis def2-SVP
energy('pbe0')
--------------------------------------------------------------------------

  Memory set to   3.725 GiB by Python driver.

*** tstart() called on thinkpad
*** at Sat Jul 10 14:05:00 2021

   => Loading Basis Set <=

    Name: DEF2-SVP
    Role: ORBITAL
    Keyword: BASIS
    atoms 1-7  entry C          line    90 file /usr/share/psi4/basis/def2-svp.gbs 
    atoms 8-21 entry H          line    15 file /usr/share/psi4/basis/def2-svp.gbs 


         ---------------------------------------------------------
                                   SCF
               by Justin Turney, Rob Parrish, Andy Simmonett
                          and Daniel G. A. Smith
                              RKS Reference
                        4 Threads,   3814 MiB Core
         ---------------------------------------------------------

  ==> Geometry <==

    Molecular point group: c1
    Full point group: C1

    Geometry (in Angstrom), charge = 0, multiplicity = 1:

       Center              X                  Y                   Z               Mass       
    ------------   -----------------  -----------------  -----------------  -----------------
         C            1.084971736591    -0.097833861893    -0.426580743523    12.000000000000
         C            0.269497527991    -1.263450720993     0.151415323277    12.000000000000
         C            0.206884612791     1.158858271507    -0.583665932923    12.000000000000
         C           -1.177021575609    -1.214389133993    -0.315793693823    12.000000000000
         C           -0.907077544509     1.192177777907     0.452275608877    12.000000000000
         C           -1.884538770909     0.030379634207     0.237213672877    12.000000000000
         C            2.316510169191     0.175047307707     0.423959341677    12.000000000000
         H            1.426357970991    -0.393595618293    -1.425824782523     1.007825032230
         H            0.293619496091    -1.216685634893     1.247675586977     1.007825032230
         H            0.739351314391    -2.213262088993    -0.120318085823     1.007825032230
         H           -0.241895056109     1.178654566707    -1.582905347923     1.007825032230
         H            0.830188789491     2.055599819707    -0.513080174823     1.007825032230
         H           -1.714306653309    -2.118904661493    -0.018605558623     1.007825032230
         H           -1.192550900509    -1.198990006193    -1.411434181923     1.007825032230
         H           -1.439663857309     2.146375733807     0.419073369977     1.007825032230
         H           -0.466568313509     1.128781929107     1.453425708577     1.007825032230
         H           -2.679026005809     0.335946331607    -0.450521768123     1.007825032230
         H           -2.376820333409    -0.211335339993     1.184223570777     1.007825032230
         H            2.908448451291    -0.733247690193     0.568400205277     1.007825032230
         H            2.962100133691     0.927191725507    -0.037026830923     1.007825032230
         H            2.031593578791     0.542209751607     1.415335483777     1.007825032230

  Running in c1 symmetry.

  Rotational constants: A =      0.13631  B =      0.07599  C =      0.05808 [cm^-1]
  Rotational constants: A =   4086.50420  B =   2278.24494  C =   1741.15238 [MHz]
  Nuclear repulsion =  331.732541093755970

  Charge       = 0
  Multiplicity = 1
  Electrons    = 56
  Nalpha       = 28
  Nbeta        = 28

  ==> Algorithm <==

  SCF Algorithm Type is DF.
  DIIS enabled.
  MOM disabled.
  Fractional occupation disabled.
  Guess Type is SAD.
  Energy threshold   = 1.00e-06
  Density threshold  = 1.00e-06
  Integral threshold = 0.00e+00

  ==> Primary Basis <==

  Basis Set: DEF2-SVP
    Blend: DEF2-SVP
    Number of shells: 84
    Number of basis function: 168
    Number of Cartesian functions: 175
    Spherical Harmonics?: true
    Max angular momentum: 2

  ==> DFT Potential <==

   => Composite Functional: PBE0 <= 

    PBE0 Hyb-GGA Exchange-Correlation Functional

    C. Adamo and V. Barone, J. Chem. Phys. 110, 6158 (1999)
    M. Ernzerhof and G. E. Scuseria, J. Chem. Phys. 110, 5029 (1999)

    Deriv               =              1
    GGA                 =           TRUE
    Meta                =          FALSE

    Exchange Hybrid     =           TRUE
    MP2 Hybrid          =          FALSE

   => Exchange Functionals <=

    0.7500   Perdew, Burke & Ernzerhof

   => Exact (HF) Exchange <=

    0.2500               HF 

   => Correlation Functionals <=

    1.0000   Perdew, Burke & Ernzerhof

   => Molecular Quadrature <=

    Radial Scheme          =       TREUTLER
    Pruning Scheme         =           FLAT
    Nuclear Scheme         =       TREUTLER

    BS radius alpha        =              1
    Pruning alpha          =              1
    Radial Points          =             75
    Spherical Points       =            302
    Total Points           =         469439
    Total Blocks           =           3431
    Max Points             =            256
    Max Functions          =            167

   => Loading Basis Set <=

    Name: (DEF2-SVP AUX)
    Role: JKFIT
    Keyword: DF_BASIS_SCF
    atoms 1-7  entry C          line   203 file /usr/share/psi4/basis/def2-svp-jkfit.gbs 
    atoms 8-21 entry H          line    23 file /usr/share/psi4/basis/def2-svp-jkfit.gbs 

  ==> Pre-Iterations <==

   -------------------------------------------------------
    Irrep   Nso     Nmo     Nalpha   Nbeta   Ndocc  Nsocc
   -------------------------------------------------------
     A        168     168       0       0       0       0
   -------------------------------------------------------
    Total     168     168      28      28      28       0
   -------------------------------------------------------

  ==> Integral Setup <==

  DFHelper Memory: AOs need 0.170 GiB; user supplied 1.121 GiB. Using in-core AOs.

  ==> MemDFJK: Density-Fitted J/K Matrices <==

    J tasked:                   Yes
    K tasked:                   Yes
    wK tasked:                   No
    OpenMP threads:               4
    Memory [MiB]:              1148
    Algorithm:                 Core
    Schwarz Cutoff:           1E-12
    Mask sparsity (%):       2.4802
    Fitting Condition:        1E-10

   => Auxiliary Basis Set <=

  Basis Set: (DEF2-SVP AUX)
    Blend: DEF2-SVP-JKFIT
    Number of shells: 259
    Number of basis function: 777
    Number of Cartesian functions: 903
    Spherical Harmonics?: true
    Max angular momentum: 4

  Cached 100.0% of DFT collocation blocks in 1.673 [GiB].

  Minimum eigenvalue in the overlap matrix is 6.4534386935E-04.
  Using Symmetric Orthogonalization.

  SCF Guess: Superposition of Atomic Densities via on-the-fly atomic UHF.

  ==> Iterations <==

                           Total Energy        Delta E     RMS |[F,P]|

   @DF-RKS iter SAD:  -274.32143221974854   -2.74321e+02   0.00000e+00 
   @DF-RKS iter   1:  -274.07319530670986    2.48237e-01   6.01606e-03 DIIS
   @DF-RKS iter   2:  -273.74310969197398    3.30086e-01   7.69136e-03 DIIS
   @DF-RKS iter   3:  -274.64537486345989   -9.02265e-01   6.42426e-04 DIIS
   @DF-RKS iter   4:  -274.65006087775106   -4.68601e-03   2.40062e-04 DIIS
   @DF-RKS iter   5:  -274.65080791035626   -7.47033e-04   6.22654e-05 DIIS
   @DF-RKS iter   6:  -274.65086135052763   -5.34402e-05   7.56865e-06 DIIS
   @DF-RKS iter   7:  -274.65086213424490   -7.83717e-07   2.85722e-06 DIIS
   @DF-RKS iter   8:  -274.65086225092597   -1.16681e-07   5.76108e-07 DIIS
  Energy and wave function converged.


  ==> Post-Iterations <==

    Orbital Energies [Eh]
    ---------------------

    Doubly Occupied:                                                      

       1A    -10.226880     2A    -10.220115     3A    -10.220048  
       4A    -10.219959     5A    -10.218819     6A    -10.218740  
       7A    -10.215892     8A     -0.853312     9A     -0.774939  
      10A     -0.750418    11A     -0.684379    12A     -0.627681  
      13A     -0.594985    14A     -0.528424    15A     -0.501297  
      16A     -0.487247    17A     -0.449745    18A     -0.424641  
      19A     -0.408971    20A     -0.398679    21A     -0.383316  
      22A     -0.368759    23A     -0.363837    24A     -0.356839  
      25A     -0.343825    26A     -0.306703    27A     -0.303734  
      28A     -0.301045  

    Virtual:                                                              

      29A      0.059680    30A      0.080285    31A      0.093768  
      32A      0.112350    33A      0.124493    34A      0.134743  
      35A      0.138364    36A      0.144589    37A      0.154633  
      38A      0.161324    39A      0.168950    40A      0.184006  
      41A      0.190717    42A      0.194847    43A      0.217476  
      44A      0.219406    45A      0.247795    46A      0.271967  
      47A      0.284739    48A      0.308007    49A      0.321429  
      50A      0.426465    51A      0.435986    52A      0.450706  
      53A      0.452594    54A      0.474867    55A      0.487759  
      56A      0.492124    57A      0.553785    58A      0.594671  
      59A      0.621889    60A      0.626576    61A      0.634409  
      62A      0.643969    63A      0.645356    64A      0.659144  
      65A      0.663359    66A      0.680608    67A      0.690144  
      68A      0.691391    69A      0.699924    70A      0.702507  
      71A      0.708102    72A      0.712971    73A      0.722701  
      74A      0.727948    75A      0.732251    76A      0.738963  
      77A      0.741898    78A      0.746297    79A      0.749650  
      80A      0.760844    81A      0.769341    82A      0.805509  
      83A      0.809416    84A      0.957676    85A      0.985635  
      86A      1.006906    87A      1.031210    88A      1.067110  
      89A      1.077748    90A      1.107610    91A      1.231785  
      92A      1.253268    93A      1.300938    94A      1.344873  
      95A      1.351968    96A      1.377313    97A      1.402645  
      98A      1.463136    99A      1.504435   100A      1.544896  
     101A      1.553780   102A      1.560989   103A      1.604183  
     104A      1.678118   105A      1.714094   106A      1.735875  
     107A      1.754297   108A      1.774878   109A      1.791407  
     110A      1.805077   111A      1.809286   112A      1.816166  
     113A      1.819903   114A      1.838628   115A      1.849687  
     116A      1.859411   117A      1.869808   118A      1.879727  
     119A      1.889798   120A      1.896537   121A      1.908281  
     122A      1.927231   123A      1.936682   124A      1.952805  
     125A      1.970390   126A      1.989430   127A      2.010687  
     128A      2.035029   129A      2.049816   130A      2.077507  
     131A      2.097516   132A      2.111691   133A      2.119314  
     134A      2.133822   135A      2.204282   136A      2.254243  
     137A      2.274380   138A      2.330946   139A      2.343768  
     140A      2.372695   141A      2.395969   142A      2.411059  
     143A      2.474195   144A      2.486488   145A      2.513676  
     146A      2.548212   147A      2.571541   148A      2.597169  
     149A      2.607877   150A      2.631289   151A      2.668516  
     152A      2.702801   153A      2.719710   154A      2.760469  
     155A      2.849229   156A      2.883638   157A      2.894893  
     158A      2.915981   159A      2.939397   160A      2.969096  
     161A      2.997854   162A      3.024188   163A      3.064842  
     164A      3.088767   165A      3.100883   166A      3.112353  
     167A      3.131199   168A      3.170098  

    Final Occupation by Irrep:
              A 
    DOCC [    28 ]

  @DF-RKS Final Energy:  -274.65086225092597

   => Energetics <=

    Nuclear Repulsion Energy =            331.7325410937559695
    One-Electron Energy =               -1025.9797739213845489
    Two-Electron Energy =                 452.1942208703216579
    DFT Exchange-Correlation Energy =     -32.5978502936190893
    Empirical Dispersion Energy =           0.0000000000000000
    VV10 Nonlocal Energy =                  0.0000000000000000
    Total Energy =                       -274.6508622509259681

Computation Completed


Properties will be evaluated at   0.000000,   0.000000,   0.000000 [a0]

Properties computed using the SCF density matrix

  Nuclear Dipole Moment: [e a0]
     X:     1.0132      Y:     0.2144      Z:     0.6829

  Electronic Dipole Moment: [e a0]
     X:    -1.0246      Y:    -0.2235      Z:    -0.7075

  Dipole Moment: [e a0]
     X:    -0.0114      Y:    -0.0091      Z:    -0.0246     Total:     0.0286

  Dipole Moment: [D]
     X:    -0.0289      Y:    -0.0230      Z:    -0.0626     Total:     0.0727


*** tstop() called on thinkpad at Sat Jul 10 14:05:15 2021
Module time:
	user time   =      42.80 seconds =       0.71 minutes
	system time =       0.98 seconds =       0.02 minutes
	total time  =         15 seconds =       0.25 minutes
Total time:
	user time   =      42.80 seconds =       0.71 minutes
	system time =       0.98 seconds =       0.02 minutes
	total time  =         15 seconds =       0.25 minutes

    Psi4 stopped on: Saturday, 10 July 2021 02:05PM
    Psi4 wall time for execution: 0:00:14.32

*** Psi4 exiting successfully. Buy a developer a beer!
