
    -----------------------------------------------------------------------
          Psi4: An Open-Source Ab Initio Electronic Structure Package
                               Psi4 1.3.2 release

                         Git: Rev {} zzzzzzz 


    R. M. Parrish, L. A. Burns, D. G. A. Smith, A. C. Simmonett,
    A. E. DePrince III, E. G. Hohenstein, U. Bozkaya, A. Yu. Sokolov,
    R. Di Remigio, R. M. Richard, J. F. Gonthier, A. M. James,
    H. R. McAlexander, A. Kumar, M. Saitow, X. Wang, B. P. Pritchard,
    P. Verma, H. F. Schaefer III, K. Patkowski, R. A. King, E. F. Valeev,
    F. A. Evangelista, J. M. Turney, T. D. Crawford, and C. D. Sherrill,
    J. Chem. Theory Comput. 13(7) pp 3185--3197 (2017).
    (doi: 10.1021/acs.jctc.7b00174)


                         Additional Contributions by
    P. Kraus, H. Kruse, M. H. Lechner, M. C. Schieber, R. A. Shaw,
    A. Alenaizan, R. Galvelis, Z. L. Glick, S. Lehtola, and J. P. Misiewicz

    -----------------------------------------------------------------------


    Psi4 started on: Tuesday, 18 January 2022 09:42PM

    Process ID: 833237
    Host:       lenovo
    PSIDATADIR: /usr/share/psi4
    Memory:     500.0 MiB
    Threads:    4
    
  ==> Input File <==

--------------------------------------------------------------------------
# PBE0/def2-TZVP calculation on methylcyclohexane conformer #1 

memory 4 gb

molecule {
	    C    -1.1095788642   0.0000421088  -0.5173760840
	    C    -0.2371911735   1.2538500872  -0.6256558751
	    C    -0.2373065295  -1.2538472571  -0.6256133330
	    C     0.9232150254   1.2569141188   0.3629919555
	    C     0.9230786172  -1.2569833692   0.3630567435
	    C     1.7717397798  -0.0000842569   0.2209982710
	    C    -1.9692772405   0.0001028398   0.7417473964
	    H    -1.7957314975   0.0000606184  -1.3728857462
	    H    -0.8538328424   2.1487527424  -0.4904864530
	    H     0.1711017413   1.3094516562  -1.6424906919
	    H     0.1710005695  -1.3095119892  -1.6424391841
	    H    -0.8540315594  -2.1486900871  -0.4904311434
	    H     0.5410089072   1.3223877590   1.3883671425
	    H     1.5377490490   2.1493641079   0.2101511831
	    H     1.5375182250  -2.1495093449   0.2102817571
	    H     0.5408436961  -1.3223517185   1.3884288345
	    H     2.2502712986  -0.0001344288  -0.7670543102
	    H     2.5806050116  -0.0001088940   0.9580214078
	    H    -1.3702856024  -0.0000265841   1.6551935732
	    H    -2.6130476994   0.8833324610   0.7731000135
	    H    -2.6132983885  -0.8829480869   0.7730149087
}

# It is beneficial to initialize larger-basis calculations with
# a small reasonable basis; use def2-SV(P) for this purpose
set basis_guess def2-SV(P)
set basis def2-TZVP
energy('pbe0')
--------------------------------------------------------------------------

  Memory set to   3.725 GiB by Python driver.

*** tstart() called on lenovo
*** at Tue Jan 18 21:42:54 2022


  //>>>>>>>>>>>>>>>>>>>>>>>>>>>>>>>>>>>//
  //    Guess SCF, DEF2-SV(P) Basis    //
  //<<<<<<<<<<<<<<<<<<<<<<<<<<<<<<<<<<<//

   => Loading Basis Set <=

    Name: DEF2-SV(P)
    Role: ORBITAL
    Keyword: BASIS
    atoms 1-7  entry C          line    88 file /usr/share/psi4/basis/def2-sv_p_.gbs 
    atoms 8-21 entry H          line    15 file /usr/share/psi4/basis/def2-sv_p_.gbs 


         ---------------------------------------------------------
                           SCF Castup computation                  
         ---------------------------------------------------------
                                   SCF
               by Justin Turney, Rob Parrish, Andy Simmonett
                          and Daniel G. A. Smith
                              RKS Reference
                        4 Threads,   3814 MiB Core
         ---------------------------------------------------------

  ==> Geometry <==

    Molecular point group: c1
    Full point group: C1

    Geometry (in Angstrom), charge = 0, multiplicity = 1:

       Center              X                  Y                   Z               Mass       
    ------------   -----------------  -----------------  -----------------  -----------------
         C           -1.109578864201     0.000042108780    -0.517376083992    12.000000000000
         C           -0.237191173501     1.253850087180    -0.625655875092    12.000000000000
         C           -0.237306529501    -1.253847257120    -0.625613332992    12.000000000000
         C            0.923215025399     1.256914118780     0.362991955508    12.000000000000
         C            0.923078617199    -1.256983369220     0.363056743508    12.000000000000
         C            1.771739779799    -0.000084256920     0.220998271008    12.000000000000
         C           -1.969277240501     0.000102839780     0.741747396408    12.000000000000
         H           -1.795731497501     0.000060618380    -1.372885746192     1.007825032230
         H           -0.853832842401     2.148752742380    -0.490486452992     1.007825032230
         H            0.171101741299     1.309451656180    -1.642490691892     1.007825032230
         H            0.171000569499    -1.309511989220    -1.642439184092     1.007825032230
         H           -0.854031559401    -2.148690087120    -0.490431143392     1.007825032230
         H            0.541008907199     1.322387758980     1.388367142508     1.007825032230
         H            1.537749048999     2.149364107880     0.210151183108     1.007825032230
         H            1.537518224999    -2.149509344920     0.210281757108     1.007825032230
         H            0.540843696099    -1.322351718520     1.388428834508     1.007825032230
         H            2.250271298599    -0.000134428820    -0.767054310192     1.007825032230
         H            2.580605011599    -0.000108894020     0.958021407808     1.007825032230
         H           -1.370285602401    -0.000026584120     1.655193573208     1.007825032230
         H           -2.613047699401     0.883332460980     0.773100013508     1.007825032230
         H           -2.613298388501    -0.882948086920     0.773014908708     1.007825032230

  Running in c1 symmetry.

  Rotational constants: A =      0.11801  B =      0.08487  C =      0.06448 [cm^-1]
  Rotational constants: A =   3537.86119  B =   2544.37041  C =   1933.20741 [MHz]
  Nuclear repulsion =  333.886610125007905

  Charge       = 0
  Multiplicity = 1
  Electrons    = 56
  Nalpha       = 28
  Nbeta        = 28

  ==> Algorithm <==

  SCF Algorithm Type is DF.
  DIIS enabled.
  MOM disabled.
  Fractional occupation disabled.
  Guess Type is SAD.
  Energy threshold   = 1.00e-06
  Density threshold  = 1.00e-06
  Integral threshold = 0.00e+00

  ==> Primary Basis <==

  Basis Set: DEF2-SV(P)
    Blend: DEF2-SV(P)
    Number of shells: 70
    Number of basis function: 126
    Number of Cartesian functions: 133
    Spherical Harmonics?: true
    Max angular momentum: 2

  ==> DFT Potential <==

   => Composite Functional: PBE0 <= 

    PBE0 Hyb-GGA Exchange-Correlation Functional

    C. Adamo and V. Barone, J. Chem. Phys. 110, 6158 (1999)
    M. Ernzerhof and G. E. Scuseria, J. Chem. Phys. 110, 5029 (1999)

    Deriv               =              1
    GGA                 =           TRUE
    Meta                =          FALSE

    Exchange Hybrid     =           TRUE
    MP2 Hybrid          =          FALSE

   => Exchange Functionals <=

    0.7500   Perdew, Burke & Ernzerhof

   => Exact (HF) Exchange <=

    0.2500               HF 

   => Correlation Functionals <=

    1.0000   Perdew, Burke & Ernzerhof

   => Molecular Quadrature <=

    Radial Scheme          =       TREUTLER
    Pruning Scheme         =           FLAT
    Nuclear Scheme         =       TREUTLER

    BS radius alpha        =              1
    Pruning alpha          =              1
    Radial Points          =             75
    Spherical Points       =            302
    Total Points           =         469460
    Total Blocks           =           3443
    Max Points             =            256
    Max Functions          =            125

   => Loading Basis Set <=

    Name: (DEF2-SV(P) AUX)
    Role: JKFIT
    Keyword: DF_BASIS_SCF
    atoms 1-7  entry C          line   203 file /usr/share/psi4/basis/def2-sv_p_-jkfit.gbs 
    atoms 8-21 entry H          line    23 file /usr/share/psi4/basis/def2-sv_p_-jkfit.gbs 

  ==> Pre-Iterations <==

   -------------------------------------------------------
    Irrep   Nso     Nmo     Nalpha   Nbeta   Ndocc  Nsocc
   -------------------------------------------------------
     A        126     126       0       0       0       0
   -------------------------------------------------------
    Total     126     126      28      28      28       0
   -------------------------------------------------------

  ==> Integral Setup <==

  ==> DiskDFJK: Density-Fitted J/K Matrices <==

    J tasked:                  Yes
    K tasked:                  Yes
    wK tasked:                  No
    OpenMP threads:              4
    Integrals threads:           4
    Memory [MiB]:             1434
    Algorithm:                Core
    Integral Cache:           NONE
    Schwarz Cutoff:          1E-12
    Fitting Condition:       1E-10

   => Auxiliary Basis Set <=

  Basis Set: (DEF2-SV(P) AUX)
    Blend: DEF2-SV_P_-JKFIT
    Number of shells: 259
    Number of basis function: 777
    Number of Cartesian functions: 903
    Spherical Harmonics?: true
    Max angular momentum: 4

  Cached 100.0% of DFT collocation blocks in 1.393 [GiB].

  Minimum eigenvalue in the overlap matrix is 1.5293896382E-03.
  Using Symmetric Orthogonalization.

  SCF Guess: Superposition of Atomic Densities via on-the-fly atomic UHF.

  ==> Iterations <==

                           Total Energy        Delta E     RMS |[F,P]|

   @DF-RKS iter SAD:  -274.33825370474250   -2.74338e+02   0.00000e+00 
   @DF-RKS iter   1:  -274.03301380286723    3.05240e-01   8.19962e-03 DIIS
   @DF-RKS iter   2:  -273.68051664976969    3.52497e-01   1.04836e-02 DIIS
   @DF-RKS iter   3:  -274.62213294302580   -9.41616e-01   8.05399e-04 DIIS
   @DF-RKS iter   4:  -274.62635670478892   -4.22376e-03   2.87026e-04 DIIS
   @DF-RKS iter   5:  -274.62693665271325   -5.79948e-04   8.88992e-05 DIIS
   @DF-RKS iter   6:  -274.62699799286497   -6.13402e-05   8.83940e-06 DIIS
   @DF-RKS iter   7:  -274.62699859732965   -6.04465e-07   3.48769e-06 DIIS
   @DF-RKS iter   8:  -274.62699869476046   -9.74308e-08   7.01835e-07 DIIS
  Energy and wave function converged.


  ==> Post-Iterations <==

    Orbital Energies [Eh]
    ---------------------

    Doubly Occupied:                                                      

       1A    -10.225732     2A    -10.215877     3A    -10.215733  
       4A    -10.215677     5A    -10.215223     6A    -10.215204  
       7A    -10.208939     8A     -0.854334     9A     -0.775432  
      10A     -0.754163    11A     -0.689617    12A     -0.617988  
      13A     -0.605616    14A     -0.539785    15A     -0.499983  
      16A     -0.460730    17A     -0.458222    18A     -0.439468  
      19A     -0.413801    20A     -0.412254    21A     -0.387283  
      22A     -0.370594    23A     -0.365286    24A     -0.348269  
      25A     -0.343304    26A     -0.316891    27A     -0.303440  
      28A     -0.303326  

    Virtual:                                                              

      29A      0.059600    30A      0.080708    31A      0.100198  
      32A      0.109241    33A      0.126999    34A      0.130886  
      35A      0.145357    36A      0.151617    37A      0.155053  
      38A      0.157831    39A      0.166565    40A      0.179391  
      41A      0.200658    42A      0.205943    43A      0.225348  
      44A      0.234105    45A      0.248798    46A      0.255167  
      47A      0.268911    48A      0.295117    49A      0.296147  
      50A      0.424399    51A      0.437124    52A      0.448043  
      53A      0.459842    54A      0.474871    55A      0.477430  
      56A      0.485056    57A      0.573727    58A      0.630803  
      59A      0.636948    60A      0.644435    61A      0.658164  
      62A      0.678971    63A      0.682318    64A      0.696816  
      65A      0.698290    66A      0.701094    67A      0.711709  
      68A      0.718783    69A      0.730733    70A      0.730914  
      71A      0.743580    72A      0.744544    73A      0.745568  
      74A      0.748212    75A      0.755573    76A      0.757807  
      77A      0.767253    78A      0.784838    79A      0.791457  
      80A      0.801432    81A      0.827241    82A      0.855829  
      83A      0.890476    84A      0.925484    85A      1.009556  
      86A      1.092794    87A      1.163134    88A      1.189443  
      89A      1.208029    90A      1.315256    91A      1.326971  
      92A      1.371080    93A      1.380520    94A      1.563311  
      95A      1.611480    96A      1.699429    97A      1.728595  
      98A      1.792031    99A      1.806753   100A      1.826283  
     101A      1.910132   102A      1.936849   103A      1.955032  
     104A      1.971680   105A      1.983962   106A      2.004377  
     107A      2.091275   108A      2.112388   109A      2.113420  
     110A      2.121133   111A      2.206536   112A      2.227025  
     113A      2.255852   114A      2.295425   115A      2.317937  
     116A      2.336137   117A      2.374488   118A      2.392163  
     119A      2.449103   120A      2.555380   121A      2.652095  
     122A      2.656567   123A      2.685909   124A      2.711281  
     125A      2.722814   126A      2.772029  

    Final Occupation by Irrep:
              A 
    DOCC [    28 ]

  @DF-RKS Final Energy:  -274.62699869476046

   => Energetics <=

    Nuclear Repulsion Energy =            333.8866101250079055
    One-Electron Energy =               -1030.2023220339697218
    Two-Electron Energy =                 454.2887136021695369
    DFT Exchange-Correlation Energy =     -32.6000003879681444
    Empirical Dispersion Energy =           0.0000000000000000
    VV10 Nonlocal Energy =                  0.0000000000000000
    Total Energy =                       -274.6269986947604025

Computation Completed

  //>>>>>>>>>>>>>>>>>>>>>>>>>>>>>>>>>>>//
  //                PBE0               //
  //<<<<<<<<<<<<<<<<<<<<<<<<<<<<<<<<<<<//

   => Loading Basis Set <=

    Name: DEF2-TZVP
    Role: ORBITAL
    Keyword: BASIS
    atoms 1-7  entry C          line   123 file /usr/share/psi4/basis/def2-tzvp.gbs 
    atoms 8-21 entry H          line    15 file /usr/share/psi4/basis/def2-tzvp.gbs 


         ---------------------------------------------------------
                                   SCF
               by Justin Turney, Rob Parrish, Andy Simmonett
                          and Daniel G. A. Smith
                              RKS Reference
                        4 Threads,   3814 MiB Core
         ---------------------------------------------------------

  ==> Geometry <==

    Molecular point group: c1
    Full point group: C1

    Geometry (in Angstrom), charge = 0, multiplicity = 1:

       Center              X                  Y                   Z               Mass       
    ------------   -----------------  -----------------  -----------------  -----------------
         C           -1.109578864201     0.000042108780    -0.517376083992    12.000000000000
         C           -0.237191173501     1.253850087180    -0.625655875092    12.000000000000
         C           -0.237306529501    -1.253847257120    -0.625613332992    12.000000000000
         C            0.923215025399     1.256914118780     0.362991955508    12.000000000000
         C            0.923078617199    -1.256983369220     0.363056743508    12.000000000000
         C            1.771739779799    -0.000084256920     0.220998271008    12.000000000000
         C           -1.969277240501     0.000102839780     0.741747396408    12.000000000000
         H           -1.795731497501     0.000060618380    -1.372885746192     1.007825032230
         H           -0.853832842401     2.148752742380    -0.490486452992     1.007825032230
         H            0.171101741299     1.309451656180    -1.642490691892     1.007825032230
         H            0.171000569499    -1.309511989220    -1.642439184092     1.007825032230
         H           -0.854031559401    -2.148690087120    -0.490431143392     1.007825032230
         H            0.541008907199     1.322387758980     1.388367142508     1.007825032230
         H            1.537749048999     2.149364107880     0.210151183108     1.007825032230
         H            1.537518224999    -2.149509344920     0.210281757108     1.007825032230
         H            0.540843696099    -1.322351718520     1.388428834508     1.007825032230
         H            2.250271298599    -0.000134428820    -0.767054310192     1.007825032230
         H            2.580605011599    -0.000108894020     0.958021407808     1.007825032230
         H           -1.370285602401    -0.000026584120     1.655193573208     1.007825032230
         H           -2.613047699401     0.883332460980     0.773100013508     1.007825032230
         H           -2.613298388501    -0.882948086920     0.773014908708     1.007825032230

  Running in c1 symmetry.

  Rotational constants: A =      0.11801  B =      0.08487  C =      0.06448 [cm^-1]
  Rotational constants: A =   3537.86119  B =   2544.37041  C =   1933.20741 [MHz]
  Nuclear repulsion =  333.886610125007905

  Charge       = 0
  Multiplicity = 1
  Electrons    = 56
  Nalpha       = 28
  Nbeta        = 28

  ==> Algorithm <==

  SCF Algorithm Type is DF.
  DIIS enabled.
  MOM disabled.
  Fractional occupation disabled.
  Guess Type is SAD.
  Energy threshold   = 1.00e-06
  Density threshold  = 1.00e-06
  Integral threshold = 0.00e+00

  ==> Primary Basis <==

  Basis Set: DEF2-TZVP
    Blend: DEF2-TZVP
    Number of shells: 133
    Number of basis function: 301
    Number of Cartesian functions: 336
    Spherical Harmonics?: true
    Max angular momentum: 3

  ==> DFT Potential <==

   => Composite Functional: PBE0 <= 

    PBE0 Hyb-GGA Exchange-Correlation Functional

    C. Adamo and V. Barone, J. Chem. Phys. 110, 6158 (1999)
    M. Ernzerhof and G. E. Scuseria, J. Chem. Phys. 110, 5029 (1999)

    Deriv               =              1
    GGA                 =           TRUE
    Meta                =          FALSE

    Exchange Hybrid     =           TRUE
    MP2 Hybrid          =          FALSE

   => Exchange Functionals <=

    0.7500   Perdew, Burke & Ernzerhof

   => Exact (HF) Exchange <=

    0.2500               HF 

   => Correlation Functionals <=

    1.0000   Perdew, Burke & Ernzerhof

   => Molecular Quadrature <=

    Radial Scheme          =       TREUTLER
    Pruning Scheme         =           FLAT
    Nuclear Scheme         =       TREUTLER

    BS radius alpha        =              1
    Pruning alpha          =              1
    Radial Points          =             75
    Spherical Points       =            302
    Total Points           =         472040
    Total Blocks           =           3444
    Max Points             =            256
    Max Functions          =            292

   => Loading Basis Set <=

    Name: (DEF2-TZVP AUX)
    Role: JKFIT
    Keyword: DF_BASIS_SCF
    atoms 1-7  entry C          line   203 file /usr/share/psi4/basis/def2-tzvp-jkfit.gbs 
    atoms 8-21 entry H          line    23 file /usr/share/psi4/basis/def2-tzvp-jkfit.gbs 


  Computing basis projection from DEF2-SV(P) to DEF2-TZVP

  ==> Pre-Iterations <==

   -------------------------------------------------------
    Irrep   Nso     Nmo     Nalpha   Nbeta   Ndocc  Nsocc
   -------------------------------------------------------
     A        301     301       0       0       0       0
   -------------------------------------------------------
    Total     301     301      28      28      28       0
   -------------------------------------------------------

  ==> Integral Setup <==

  DFHelper Memory: AOs need 0.540 GiB; user supplied 0.540 GiB. Using in-core AOs.

  ==> MemDFJK: Density-Fitted J/K Matrices <==

    J tasked:                   Yes
    K tasked:                   Yes
    wK tasked:                   No
    OpenMP threads:               4
    Memory [MiB]:               552
    Algorithm:                 Core
    Schwarz Cutoff:           1E-12
    Mask sparsity (%):       1.8962
    Fitting Condition:        1E-10

   => Auxiliary Basis Set <=

  Basis Set: (DEF2-TZVP AUX)
    Blend: DEF2-TZVP-JKFIT
    Number of shells: 259
    Number of basis function: 777
    Number of Cartesian functions: 903
    Spherical Harmonics?: true
    Max angular momentum: 4

  Cached 100.0% of DFT collocation blocks in 3.014 [GiB].

  Minimum eigenvalue in the overlap matrix is 9.8598869860E-05.
  Using Symmetric Orthogonalization.

  SCF Guess: Orbitals guess was supplied from a previous computation.

  ==> Iterations <==

                           Total Energy        Delta E     RMS |[F,P]|

   @DF-RKS iter   0:  -274.78775888395376   -2.74788e+02   5.32963e-03 
   @DF-RKS iter   1:  -274.94352324739231   -1.55764e-01   1.13200e-04 DIIS
   @DF-RKS iter   2:  -274.94345620418187    6.70432e-05   1.24923e-04 DIIS
   @DF-RKS iter   3:  -274.94416372292017   -7.07519e-04   1.77271e-05 DIIS
   @DF-RKS iter   4:  -274.94417596083144   -1.22379e-05   5.71038e-06 DIIS
   @DF-RKS iter   5:  -274.94417727977299   -1.31894e-06   1.15095e-06 DIIS
   @DF-RKS iter   6:  -274.94417733260957   -5.28366e-08   2.56482e-07 DIIS
  Energy and wave function converged.


  ==> Post-Iterations <==

    Orbital Energies [Eh]
    ---------------------

    Doubly Occupied:                                                      

       1A    -10.217137     2A    -10.208630     3A    -10.208372  
       4A    -10.208255     5A    -10.207774     6A    -10.207760  
       7A    -10.202176     8A     -0.859458     9A     -0.781305  
      10A     -0.759964    11A     -0.695309    12A     -0.622464  
      13A     -0.609574    14A     -0.542113    15A     -0.498280  
      16A     -0.459007    17A     -0.458147    18A     -0.437504  
      19A     -0.411893    20A     -0.410119    21A     -0.384840  
      22A     -0.368440    23A     -0.363298    24A     -0.345903  
      25A     -0.341037    26A     -0.315046    27A     -0.301272  
      28A     -0.301152  

    Virtual:                                                              

      29A      0.038520    30A      0.059590    31A      0.073446  
      32A      0.081445    33A      0.101200    34A      0.102314  
      35A      0.107926    36A      0.119215    37A      0.122238  
      38A      0.124230    39A      0.139384    40A      0.146799  
      41A      0.168219    42A      0.170744    43A      0.173804  
      44A      0.199248    45A      0.199513    46A      0.222712  
      47A      0.223835    48A      0.230452    49A      0.240047  
      50A      0.244765    51A      0.255164    52A      0.256241  
      53A      0.275462    54A      0.279202    55A      0.298453  
      56A      0.305147    57A      0.325754    58A      0.331074  
      59A      0.372792    60A      0.404761    61A      0.405135  
      62A      0.413417    63A      0.417844    64A      0.423778  
      65A      0.434887    66A      0.435963    67A      0.443117  
      68A      0.452449    69A      0.453729    70A      0.458535  
      71A      0.462899    72A      0.473864    73A      0.474844  
      74A      0.480944    75A      0.481090    76A      0.499873  
      77A      0.500078    78A      0.507735    79A      0.514996  
      80A      0.522819    81A      0.523605    82A      0.539695  
      83A      0.591265    84A      0.614036    85A      0.632524  
      86A      0.658477    87A      0.667229    88A      0.733007  
      89A      0.744641    90A      0.765680    91A      0.766680  
      92A      0.781543    93A      0.794641    94A      0.803297  
      95A      0.818797    96A      0.852876    97A      0.854456  
      98A      0.888216    99A      0.911575   100A      0.920710  
     101A      0.935778   102A      0.952818   103A      0.969385  
     104A      1.006041   105A      1.028005   106A      1.044085  
     107A      1.048750   108A      1.061121   109A      1.117181  
     110A      1.119678   111A      1.139736   112A      1.164003  
     113A      1.175919   114A      1.188249   115A      1.188959  
     116A      1.200841   117A      1.251171   118A      1.258222  
     119A      1.262819   120A      1.277336   121A      1.297485  
     122A      1.314555   123A      1.316732   124A      1.329419  
     125A      1.435165   126A      1.437221   127A      1.493625  
     128A      1.542965   129A      1.555785   130A      1.569857  
     131A      1.584059   132A      1.593740   133A      1.608325  
     134A      1.616912   135A      1.638054   136A      1.638362  
     137A      1.652725   138A      1.658905   139A      1.673525  
     140A      1.690665   141A      1.698500   142A      1.724059  
     143A      1.752913   144A      1.768310   145A      1.783255  
     146A      1.795398   147A      1.836068   148A      1.843822  
     149A      1.889195   150A      1.889841   151A      1.906371  
     152A      1.913534   153A      1.941736   154A      1.975363  
     155A      1.993207   156A      2.016557   157A      2.017607  
     158A      2.051853   159A      2.088124   160A      2.127695  
     161A      2.134464   162A      2.139308   163A      2.168401  
     164A      2.177178   165A      2.207743   166A      2.235733  
     167A      2.253598   168A      2.263171   169A      2.305813  
     170A      2.342411   171A      2.349025   172A      2.378915  
     173A      2.426939   174A      2.440277   175A      2.444611  
     176A      2.463233   177A      2.476416   178A      2.508586  
     179A      2.523687   180A      2.532999   181A      2.539431  
     182A      2.549958   183A      2.558941   184A      2.576779  
     185A      2.604886   186A      2.622012   187A      2.626227  
     188A      2.632666   189A      2.636307   190A      2.645823  
     191A      2.667265   192A      2.676707   193A      2.678383  
     194A      2.701418   195A      2.721302   196A      2.734472  
     197A      2.754213   198A      2.775830   199A      2.790600  
     200A      2.798490   201A      2.820536   202A      2.837835  
     203A      2.859438   204A      2.862538   205A      2.872074  
     206A      2.877481   207A      2.907682   208A      2.945814  
     209A      2.963324   210A      2.976561   211A      3.020616  
     212A      3.043298   213A      3.052600   214A      3.095449  
     215A      3.101259   216A      3.140799   217A      3.148464  
     218A      3.158878   219A      3.184749   220A      3.199936  
     221A      3.225731   222A      3.236280   223A      3.257526  
     224A      3.285103   225A      3.286140   226A      3.304252  
     227A      3.317998   228A      3.333823   229A      3.357383  
     230A      3.367618   231A      3.383253   232A      3.412075  
     233A      3.425782   234A      3.428487   235A      3.442038  
     236A      3.472156   237A      3.482775   238A      3.509682  
     239A      3.510847   240A      3.521710   241A      3.535891  
     242A      3.560602   243A      3.589892   244A      3.601378  
     245A      3.603770   246A      3.610808   247A      3.624095  
     248A      3.643035   249A      3.675100   250A      3.683635  
     251A      3.694575   252A      3.766150   253A      3.789156  
     254A      3.832672   255A      3.908694   256A      3.928153  
     257A      3.947338   258A      3.990238   259A      3.995536  
     260A      4.034034   261A      4.052402   262A      4.067656  
     263A      4.082598   264A      4.087241   265A      4.110921  
     266A      4.122848   267A      4.161389   268A      4.195024  
     269A      4.200851   270A      4.238242   271A      4.274925  
     272A      4.288565   273A      4.330167   274A      4.365439  
     275A      4.392829   276A      4.430421   277A      4.450417  
     278A      4.459594   279A      4.526344   280A      4.543791  
     281A      4.558350   282A      4.635187   283A      4.651421  
     284A      4.709354   285A      4.782215   286A      4.793881  
     287A      4.858525   288A      4.881846   289A      4.921062  
     290A      4.935407   291A      5.022859   292A      5.064750  
     293A      5.096732   294A      5.100924   295A     22.495360  
     296A     22.531988   297A     22.582205   298A     22.609330  
     299A     22.648212   300A     22.712473   301A     22.752837  

    Final Occupation by Irrep:
              A 
    DOCC [    28 ]

  @DF-RKS Final Energy:  -274.94417733260957

   => Energetics <=

    Nuclear Repulsion Energy =            333.8866101250079055
    One-Electron Energy =               -1030.8786795957757931
    Two-Electron Energy =                 454.7149508637062354
    DFT Exchange-Correlation Energy =     -32.6670587255479603
    Empirical Dispersion Energy =           0.0000000000000000
    VV10 Nonlocal Energy =                  0.0000000000000000
    Total Energy =                       -274.9441773326096268

Computation Completed


Properties will be evaluated at   0.000000,   0.000000,   0.000000 [a0]

Properties computed using the SCF density matrix

  Nuclear Dipole Moment: [e a0]
     X:    -0.7220      Y:     0.0001      Z:     0.8913

  Electronic Dipole Moment: [e a0]
     X:     0.7258      Y:    -0.0001      Z:    -0.9208

  Dipole Moment: [e a0]
     X:     0.0038      Y:    -0.0000      Z:    -0.0295     Total:     0.0297

  Dipole Moment: [D]
     X:     0.0097      Y:    -0.0000      Z:    -0.0749     Total:     0.0755


*** tstop() called on lenovo at Tue Jan 18 21:43:34 2022
Module time:
	user time   =     128.47 seconds =       2.14 minutes
	system time =       2.57 seconds =       0.04 minutes
	total time  =         40 seconds =       0.67 minutes
Total time:
	user time   =     128.47 seconds =       2.14 minutes
	system time =       2.57 seconds =       0.04 minutes
	total time  =         40 seconds =       0.67 minutes

    Psi4 stopped on: Tuesday, 18 January 2022 09:43PM
    Psi4 wall time for execution: 0:00:39.36

*** Psi4 exiting successfully. Buy a developer a beer!
