
    -----------------------------------------------------------------------
          Psi4: An Open-Source Ab Initio Electronic Structure Package
                               Psi4 1.3.2 release

                         Git: Rev {} zzzzzzz 


    R. M. Parrish, L. A. Burns, D. G. A. Smith, A. C. Simmonett,
    A. E. DePrince III, E. G. Hohenstein, U. Bozkaya, A. Yu. Sokolov,
    R. Di Remigio, R. M. Richard, J. F. Gonthier, A. M. James,
    H. R. McAlexander, A. Kumar, M. Saitow, X. Wang, B. P. Pritchard,
    P. Verma, H. F. Schaefer III, K. Patkowski, R. A. King, E. F. Valeev,
    F. A. Evangelista, J. M. Turney, T. D. Crawford, and C. D. Sherrill,
    J. Chem. Theory Comput. 13(7) pp 3185--3197 (2017).
    (doi: 10.1021/acs.jctc.7b00174)


                         Additional Contributions by
    P. Kraus, H. Kruse, M. H. Lechner, M. C. Schieber, R. A. Shaw,
    A. Alenaizan, R. Galvelis, Z. L. Glick, S. Lehtola, and J. P. Misiewicz

    -----------------------------------------------------------------------


    Psi4 started on: Saturday, 10 July 2021 02:03PM

    Process ID: 1411493
    Host:       thinkpad
    PSIDATADIR: /usr/share/psi4
    Memory:     500.0 MiB
    Threads:    4
    
  ==> Input File <==

--------------------------------------------------------------------------
# PBE0/def2-SV(P) calculation on methylcyclohexane conformer #4 

memory 4 gb

molecule {
	    C     1.0967391628  -0.0189497195  -0.5442522969
	    C     0.2248116124  -1.2773262118  -0.5815552448
	    C     0.2186666840   1.2281403889  -0.6812511722
	    C    -0.9107270848  -1.2430181465   0.4351430269
	    C    -0.9165900156   1.2691052592   0.3354739372
	    C    -1.7656183377   0.0063011319   0.2652294025
	    C     1.9861643489   0.0324766408   0.6929603546
	    H     1.7619761891  -0.0519593128  -1.4155121231
	    H     0.8470133499  -2.1651667770  -0.4268217404
	    H    -0.2084250060  -1.3732402737  -1.5849221445
	    H    -0.2150661957   1.2417167067  -1.6888811869
	    H     0.8364239134   2.1285704211  -0.5978963419
	    H    -0.5029163708  -1.2675470736   1.4523818526
	    H    -1.5267819337  -2.1416437225   0.3329272687
	    H    -1.5368131345   2.1539784780   0.1627803425
	    H    -0.5088087563   1.3758575644   1.3474077991
	    H    -2.2691485831  -0.0335678392  -0.7094746205
	    H    -2.5554707794   0.0345024101   1.0220933739
	    H     2.6286920275   0.9169412507   0.6736089759
	    H     1.4091425194   0.0683224367   1.6197482185
	    H     2.6326254302  -0.8478211176   0.7442933959
}

set basis def2-SV(P)
energy('pbe0')
--------------------------------------------------------------------------

  Memory set to   3.725 GiB by Python driver.

*** tstart() called on thinkpad
*** at Sat Jul 10 14:03:09 2021

   => Loading Basis Set <=

    Name: DEF2-SV(P)
    Role: ORBITAL
    Keyword: BASIS
    atoms 1-7  entry C          line    88 file /usr/share/psi4/basis/def2-sv_p_.gbs 
    atoms 8-21 entry H          line    15 file /usr/share/psi4/basis/def2-sv_p_.gbs 


         ---------------------------------------------------------
                                   SCF
               by Justin Turney, Rob Parrish, Andy Simmonett
                          and Daniel G. A. Smith
                              RKS Reference
                        4 Threads,   3814 MiB Core
         ---------------------------------------------------------

  ==> Geometry <==

    Molecular point group: c1
    Full point group: C1

    Geometry (in Angstrom), charge = 0, multiplicity = 1:

       Center              X                  Y                   Z               Mass       
    ------------   -----------------  -----------------  -----------------  -----------------
         C            1.096739162806    -0.018949719487    -0.544252296887    12.000000000000
         C            0.224811612406    -1.277326211787    -0.581555244787    12.000000000000
         C            0.218666684006     1.228140388913    -0.681251172187    12.000000000000
         C           -0.910727084794    -1.243018146487     0.435143026913    12.000000000000
         C           -0.916590015594     1.269105259213     0.335473937213    12.000000000000
         C           -1.765618337694     0.006301131913     0.265229402513    12.000000000000
         C            1.986164348906     0.032476640813     0.692960354613    12.000000000000
         H            1.761976189106    -0.051959312787    -1.415512123087     1.007825032230
         H            0.847013349906    -2.165166776987    -0.426821740387     1.007825032230
         H           -0.208425005994    -1.373240273687    -1.584922144487     1.007825032230
         H           -0.215066195694     1.241716706713    -1.688881186887     1.007825032230
         H            0.836423913406     2.128570421113    -0.597896341887     1.007825032230
         H           -0.502916370794    -1.267547073587     1.452381852613     1.007825032230
         H           -1.526781933694    -2.141643722487     0.332927268713     1.007825032230
         H           -1.536813134494     2.153978478013     0.162780342513     1.007825032230
         H           -0.508808756294     1.375857564413     1.347407799113     1.007825032230
         H           -2.269148583094    -0.033567839187    -0.709474620487     1.007825032230
         H           -2.555470779394     0.034502410113     1.022093373913     1.007825032230
         H            2.628692027506     0.916941250713     0.673608975913     1.007825032230
         H            1.409142519406     0.068322436713     1.619748218513     1.007825032230
         H            2.632625430206    -0.847821117587     0.744293395913     1.007825032230

  Running in c1 symmetry.

  Rotational constants: A =      0.11798  B =      0.08488  C =      0.06450 [cm^-1]
  Rotational constants: A =   3537.00271  B =   2544.63395  C =   1933.68807 [MHz]
  Nuclear repulsion =  333.886463115406457

  Charge       = 0
  Multiplicity = 1
  Electrons    = 56
  Nalpha       = 28
  Nbeta        = 28

  ==> Algorithm <==

  SCF Algorithm Type is DF.
  DIIS enabled.
  MOM disabled.
  Fractional occupation disabled.
  Guess Type is SAD.
  Energy threshold   = 1.00e-06
  Density threshold  = 1.00e-06
  Integral threshold = 0.00e+00

  ==> Primary Basis <==

  Basis Set: DEF2-SV(P)
    Blend: DEF2-SV(P)
    Number of shells: 70
    Number of basis function: 126
    Number of Cartesian functions: 133
    Spherical Harmonics?: true
    Max angular momentum: 2

  ==> DFT Potential <==

   => Composite Functional: PBE0 <= 

    PBE0 Hyb-GGA Exchange-Correlation Functional

    C. Adamo and V. Barone, J. Chem. Phys. 110, 6158 (1999)
    M. Ernzerhof and G. E. Scuseria, J. Chem. Phys. 110, 5029 (1999)

    Deriv               =              1
    GGA                 =           TRUE
    Meta                =          FALSE

    Exchange Hybrid     =           TRUE
    MP2 Hybrid          =          FALSE

   => Exchange Functionals <=

    0.7500   Perdew, Burke & Ernzerhof

   => Exact (HF) Exchange <=

    0.2500               HF 

   => Correlation Functionals <=

    1.0000   Perdew, Burke & Ernzerhof

   => Molecular Quadrature <=

    Radial Scheme          =       TREUTLER
    Pruning Scheme         =           FLAT
    Nuclear Scheme         =       TREUTLER

    BS radius alpha        =              1
    Pruning alpha          =              1
    Radial Points          =             75
    Spherical Points       =            302
    Total Points           =         469461
    Total Blocks           =           3444
    Max Points             =            256
    Max Functions          =            125

   => Loading Basis Set <=

    Name: (DEF2-SV(P) AUX)
    Role: JKFIT
    Keyword: DF_BASIS_SCF
    atoms 1-7  entry C          line   203 file /usr/share/psi4/basis/def2-sv_p_-jkfit.gbs 
    atoms 8-21 entry H          line    23 file /usr/share/psi4/basis/def2-sv_p_-jkfit.gbs 

  ==> Pre-Iterations <==

   -------------------------------------------------------
    Irrep   Nso     Nmo     Nalpha   Nbeta   Ndocc  Nsocc
   -------------------------------------------------------
     A        126     126       0       0       0       0
   -------------------------------------------------------
    Total     126     126      28      28      28       0
   -------------------------------------------------------

  ==> Integral Setup <==

  DFHelper Memory: AOs need 0.100 GiB; user supplied 1.401 GiB. Using in-core AOs.

  ==> MemDFJK: Density-Fitted J/K Matrices <==

    J tasked:                   Yes
    K tasked:                   Yes
    wK tasked:                   No
    OpenMP threads:               4
    Memory [MiB]:              1434
    Algorithm:                 Core
    Schwarz Cutoff:           1E-12
    Mask sparsity (%):       0.3527
    Fitting Condition:        1E-10

   => Auxiliary Basis Set <=

  Basis Set: (DEF2-SV(P) AUX)
    Blend: DEF2-SV_P_-JKFIT
    Number of shells: 259
    Number of basis function: 777
    Number of Cartesian functions: 903
    Spherical Harmonics?: true
    Max angular momentum: 4

  Cached 100.0% of DFT collocation blocks in 1.393 [GiB].

  Minimum eigenvalue in the overlap matrix is 1.5297774713E-03.
  Using Symmetric Orthogonalization.

  SCF Guess: Superposition of Atomic Densities via on-the-fly atomic UHF.

  ==> Iterations <==

                           Total Energy        Delta E     RMS |[F,P]|

   @DF-RKS iter SAD:  -274.33779899359070   -2.74338e+02   0.00000e+00 
   @DF-RKS iter   1:  -274.03313226639369    3.04667e-01   8.19881e-03 DIIS
   @DF-RKS iter   2:  -273.68080557551093    3.52327e-01   1.04821e-02 DIIS
   @DF-RKS iter   3:  -274.62213533218988   -9.41330e-01   8.05246e-04 DIIS
   @DF-RKS iter   4:  -274.62635807214201   -4.22274e-03   2.86827e-04 DIIS
   @DF-RKS iter   5:  -274.62693715393237   -5.79082e-04   8.88844e-05 DIIS
   @DF-RKS iter   6:  -274.62699847251736   -6.13186e-05   8.83469e-06 DIIS
   @DF-RKS iter   7:  -274.62699907636051   -6.03843e-07   3.48623e-06 DIIS
   @DF-RKS iter   8:  -274.62699917371589   -9.73554e-08   7.01970e-07 DIIS
  Energy and wave function converged.


  ==> Post-Iterations <==

    Orbital Energies [Eh]
    ---------------------

    Doubly Occupied:                                                      

       1A    -10.225739     2A    -10.215894     3A    -10.215743  
       4A    -10.215690     5A    -10.215225     6A    -10.215205  
       7A    -10.208941     8A     -0.854311     9A     -0.775406  
      10A     -0.754130    11A     -0.689638    12A     -0.617982  
      13A     -0.605608    14A     -0.539781    15A     -0.499967  
      16A     -0.460733    17A     -0.458219    18A     -0.439485  
      19A     -0.413789    20A     -0.412209    21A     -0.387270  
      22A     -0.370590    23A     -0.365320    24A     -0.348264  
      25A     -0.343317    26A     -0.316917    27A     -0.303453  
      28A     -0.303288  

    Virtual:                                                              

      29A      0.059610    30A      0.080717    31A      0.100194  
      32A      0.109260    33A      0.127004    34A      0.130894  
      35A      0.145379    36A      0.151620    37A      0.155058  
      38A      0.157849    39A      0.166559    40A      0.179355  
      41A      0.200645    42A      0.205972    43A      0.225339  
      44A      0.234119    45A      0.248847    46A      0.255045  
      47A      0.268854    48A      0.295185    49A      0.296070  
      50A      0.424468    51A      0.437090    52A      0.448018  
      53A      0.459848    54A      0.474854    55A      0.477466  
      56A      0.485087    57A      0.573734    58A      0.630772  
      59A      0.636882    60A      0.644344    61A      0.658118  
      62A      0.678914    63A      0.682322    64A      0.696785  
      65A      0.698297    66A      0.701159    67A      0.711712  
      68A      0.718796    69A      0.730773    70A      0.730907  
      71A      0.743617    72A      0.744538    73A      0.745534  
      74A      0.748165    75A      0.755549    76A      0.757803  
      77A      0.767277    78A      0.784877    79A      0.791448  
      80A      0.801485    81A      0.827220    82A      0.855903  
      83A      0.890381    84A      0.925401    85A      1.009596  
      86A      1.092758    87A      1.163166    88A      1.189552  
      89A      1.208040    90A      1.315126    91A      1.327000  
      92A      1.371095    93A      1.380398    94A      1.563348  
      95A      1.611594    96A      1.699357    97A      1.728519  
      98A      1.791922    99A      1.806704   100A      1.826305  
     101A      1.910119   102A      1.936852   103A      1.955102  
     104A      1.971684   105A      1.983848   106A      2.004392  
     107A      2.091222   108A      2.112399   109A      2.113542  
     110A      2.121002   111A      2.206458   112A      2.227126  
     113A      2.255759   114A      2.295311   115A      2.317885  
     116A      2.336115   117A      2.374459   118A      2.392093  
     119A      2.449107   120A      2.555288   121A      2.652065  
     122A      2.656474   123A      2.685624   124A      2.711268  
     125A      2.722799   126A      2.771949  

    Final Occupation by Irrep:
              A 
    DOCC [    28 ]

  @DF-RKS Final Energy:  -274.62699917371589

   => Energetics <=

    Nuclear Repulsion Energy =            333.8864631154064568
    One-Electron Energy =               -1030.2022152479275974
    Two-Electron Energy =                 454.2886509494335883
    DFT Exchange-Correlation Energy =     -32.5998979906284134
    Empirical Dispersion Energy =           0.0000000000000000
    VV10 Nonlocal Energy =                  0.0000000000000000
    Total Energy =                       -274.6269991737158875

Computation Completed


Properties will be evaluated at   0.000000,   0.000000,   0.000000 [a0]

Properties computed using the SCF density matrix

  Nuclear Dipole Moment: [e a0]
     X:     0.7429      Y:     0.0365      Z:     0.8735

  Electronic Dipole Moment: [e a0]
     X:    -0.7393      Y:    -0.0370      Z:    -0.8853

  Dipole Moment: [e a0]
     X:     0.0036      Y:    -0.0005      Z:    -0.0119     Total:     0.0124

  Dipole Moment: [D]
     X:     0.0090      Y:    -0.0012      Z:    -0.0302     Total:     0.0315


*** tstop() called on thinkpad at Sat Jul 10 14:03:21 2021
Module time:
	user time   =      33.64 seconds =       0.56 minutes
	system time =       0.78 seconds =       0.01 minutes
	total time  =         12 seconds =       0.20 minutes
Total time:
	user time   =      33.64 seconds =       0.56 minutes
	system time =       0.78 seconds =       0.01 minutes
	total time  =         12 seconds =       0.20 minutes

    Psi4 stopped on: Saturday, 10 July 2021 02:03PM
    Psi4 wall time for execution: 0:00:11.81

*** Psi4 exiting successfully. Buy a developer a beer!
