
    -----------------------------------------------------------------------
          Psi4: An Open-Source Ab Initio Electronic Structure Package
                               Psi4 1.3.2 release

                         Git: Rev {} zzzzzzz 


    R. M. Parrish, L. A. Burns, D. G. A. Smith, A. C. Simmonett,
    A. E. DePrince III, E. G. Hohenstein, U. Bozkaya, A. Yu. Sokolov,
    R. Di Remigio, R. M. Richard, J. F. Gonthier, A. M. James,
    H. R. McAlexander, A. Kumar, M. Saitow, X. Wang, B. P. Pritchard,
    P. Verma, H. F. Schaefer III, K. Patkowski, R. A. King, E. F. Valeev,
    F. A. Evangelista, J. M. Turney, T. D. Crawford, and C. D. Sherrill,
    J. Chem. Theory Comput. 13(7) pp 3185--3197 (2017).
    (doi: 10.1021/acs.jctc.7b00174)


                         Additional Contributions by
    P. Kraus, H. Kruse, M. H. Lechner, M. C. Schieber, R. A. Shaw,
    A. Alenaizan, R. Galvelis, Z. L. Glick, S. Lehtola, and J. P. Misiewicz

    -----------------------------------------------------------------------


    Psi4 started on: Saturday, 10 July 2021 02:21PM

    Process ID: 1453692
    Host:       thinkpad
    PSIDATADIR: /usr/share/psi4
    Memory:     500.0 MiB
    Threads:    4
    
  ==> Input File <==

--------------------------------------------------------------------------
# PBE0/def2-TZVP calculation on methylcyclohexane conformer #3 

memory 4 gb

molecule {
	    C     1.0216419245  -0.0001893047  -0.3161487792
	    C     0.2973378810  -1.2506189086   0.1775810939
	    C     0.2974575475   1.2506064200   0.1768888542
	    C    -1.1744365717  -1.2562548858  -0.2114123160
	    C    -1.1744003045   1.2563138446  -0.2118044939
	    C    -1.8832979544   0.0001086433   0.2763796821
	    C     2.5044935295   0.0000211444   0.0793266134
	    H     0.9512211911  -0.0006346245  -1.4122949918
	    H     0.3862894619  -1.2982365713   1.2715459249
	    H     0.7972905901  -2.1442785585  -0.2110917697
	    H     0.7974907920   2.1441281708  -0.2119996269
	    H     0.3864916794   1.2984938158   1.2708408296
	    H    -1.6669778433  -2.1498908639   0.1839200828
	    H    -1.2570179075  -1.3143309934  -1.3042533603
	    H    -1.2572891892   1.3142828167  -1.3046177348
	    H    -1.6667382460   2.1500405286   0.1835849215
	    H    -2.9272715623   0.0000773207  -0.0514713459
	    H    -1.9011221133   0.0002497318   1.3736480570
	    H     2.7616318183  -0.8827199494   0.6705925314
	    H     3.1617458457   0.0067799630  -0.7925468044
	    H     2.7583418418   0.8761945606   0.6816958235
}

# It is beneficial to initialize larger-basis calculations with
# a small reasonable basis; use def2-SV(P) for this purpose
set basis_guess def2-SV(P)
set basis def2-TZVP
energy('pbe0')
--------------------------------------------------------------------------

  Memory set to   3.725 GiB by Python driver.

*** tstart() called on thinkpad
*** at Sat Jul 10 14:21:40 2021


  //>>>>>>>>>>>>>>>>>>>>>>>>>>>>>>>>>>>//
  //    Guess SCF, DEF2-SV(P) Basis    //
  //<<<<<<<<<<<<<<<<<<<<<<<<<<<<<<<<<<<//

   => Loading Basis Set <=

    Name: DEF2-SV(P)
    Role: ORBITAL
    Keyword: BASIS
    atoms 1-7  entry C          line    88 file /usr/share/psi4/basis/def2-sv_p_.gbs 
    atoms 8-21 entry H          line    15 file /usr/share/psi4/basis/def2-sv_p_.gbs 


         ---------------------------------------------------------
                           SCF Castup computation                  
         ---------------------------------------------------------
                                   SCF
               by Justin Turney, Rob Parrish, Andy Simmonett
                          and Daniel G. A. Smith
                              RKS Reference
                        4 Threads,   3814 MiB Core
         ---------------------------------------------------------

  ==> Geometry <==

    Molecular point group: c1
    Full point group: C1

    Geometry (in Angstrom), charge = 0, multiplicity = 1:

       Center              X                  Y                   Z               Mass       
    ------------   -----------------  -----------------  -----------------  -----------------
         C            1.021641924501    -0.000189304710    -0.316148779207    12.000000000000
         C            0.297337881001    -1.250618908610     0.177581093893    12.000000000000
         C            0.297457547501     1.250606419990     0.176888854193    12.000000000000
         C           -1.174436571699    -1.256254885810    -0.211412316007    12.000000000000
         C           -1.174400304499     1.256313844590    -0.211804493907    12.000000000000
         C           -1.883297954399     0.000108643290     0.276379682093    12.000000000000
         C            2.504493529501     0.000021144390     0.079326613393    12.000000000000
         H            0.951221191101    -0.000634624510    -1.412294991807     1.007825032230
         H            0.386289461901    -1.298236571310     1.271545924893     1.007825032230
         H            0.797290590101    -2.144278558510    -0.211091769707     1.007825032230
         H            0.797490792001     2.144128170790    -0.211999626907     1.007825032230
         H            0.386491679401     1.298493815790     1.270840829593     1.007825032230
         H           -1.666977843299    -2.149890863910     0.183920082793     1.007825032230
         H           -1.257017907499    -1.314330993410    -1.304253360307     1.007825032230
         H           -1.257289189199     1.314282816690    -1.304617734807     1.007825032230
         H           -1.666738245999     2.150040528590     0.183584921493     1.007825032230
         H           -2.927271562299     0.000077320690    -0.051471345907     1.007825032230
         H           -1.901122113299     0.000249731790     1.373648056993     1.007825032230
         H            2.761631818301    -0.882719949410     0.670592531393     1.007825032230
         H            3.161745845701     0.006779962990    -0.792546804407     1.007825032230
         H            2.758341841801     0.876194560590     0.681695823493     1.007825032230

  Running in c1 symmetry.

  Rotational constants: A =      0.14193  B =      0.07301  C =      0.05318 [cm^-1]
  Rotational constants: A =   4255.03817  B =   2188.69819  C =   1594.21738 [MHz]
  Nuclear repulsion =  329.521155999122357

  Charge       = 0
  Multiplicity = 1
  Electrons    = 56
  Nalpha       = 28
  Nbeta        = 28

  ==> Algorithm <==

  SCF Algorithm Type is DF.
  DIIS enabled.
  MOM disabled.
  Fractional occupation disabled.
  Guess Type is SAD.
  Energy threshold   = 1.00e-06
  Density threshold  = 1.00e-06
  Integral threshold = 0.00e+00

  ==> Primary Basis <==

  Basis Set: DEF2-SV(P)
    Blend: DEF2-SV(P)
    Number of shells: 70
    Number of basis function: 126
    Number of Cartesian functions: 133
    Spherical Harmonics?: true
    Max angular momentum: 2

  ==> DFT Potential <==

   => Composite Functional: PBE0 <= 

    PBE0 Hyb-GGA Exchange-Correlation Functional

    C. Adamo and V. Barone, J. Chem. Phys. 110, 6158 (1999)
    M. Ernzerhof and G. E. Scuseria, J. Chem. Phys. 110, 5029 (1999)

    Deriv               =              1
    GGA                 =           TRUE
    Meta                =          FALSE

    Exchange Hybrid     =           TRUE
    MP2 Hybrid          =          FALSE

   => Exchange Functionals <=

    0.7500   Perdew, Burke & Ernzerhof

   => Exact (HF) Exchange <=

    0.2500               HF 

   => Correlation Functionals <=

    1.0000   Perdew, Burke & Ernzerhof

   => Molecular Quadrature <=

    Radial Scheme          =       TREUTLER
    Pruning Scheme         =           FLAT
    Nuclear Scheme         =       TREUTLER

    BS radius alpha        =              1
    Pruning alpha          =              1
    Radial Points          =             75
    Spherical Points       =            302
    Total Points           =         469450
    Total Blocks           =           3444
    Max Points             =            256
    Max Functions          =            125

   => Loading Basis Set <=

    Name: (DEF2-SV(P) AUX)
    Role: JKFIT
    Keyword: DF_BASIS_SCF
    atoms 1-7  entry C          line   203 file /usr/share/psi4/basis/def2-sv_p_-jkfit.gbs 
    atoms 8-21 entry H          line    23 file /usr/share/psi4/basis/def2-sv_p_-jkfit.gbs 

  ==> Pre-Iterations <==

   -------------------------------------------------------
    Irrep   Nso     Nmo     Nalpha   Nbeta   Ndocc  Nsocc
   -------------------------------------------------------
     A        126     126       0       0       0       0
   -------------------------------------------------------
    Total     126     126      28      28      28       0
   -------------------------------------------------------

  ==> Integral Setup <==

  ==> DiskDFJK: Density-Fitted J/K Matrices <==

    J tasked:                  Yes
    K tasked:                  Yes
    wK tasked:                  No
    OpenMP threads:              4
    Integrals threads:           4
    Memory [MiB]:             1470
    Algorithm:                Core
    Integral Cache:           NONE
    Schwarz Cutoff:          1E-12
    Fitting Condition:       1E-10

   => Auxiliary Basis Set <=

  Basis Set: (DEF2-SV(P) AUX)
    Blend: DEF2-SV_P_-JKFIT
    Number of shells: 259
    Number of basis function: 777
    Number of Cartesian functions: 903
    Spherical Harmonics?: true
    Max angular momentum: 4

  Cached 100.0% of DFT collocation blocks in 1.358 [GiB].

  Minimum eigenvalue in the overlap matrix is 1.3825007297E-03.
  Using Symmetric Orthogonalization.

  SCF Guess: Superposition of Atomic Densities via on-the-fly atomic UHF.

  ==> Iterations <==

                           Total Energy        Delta E     RMS |[F,P]|

   @DF-RKS iter SAD:  -274.33396351159865   -2.74334e+02   0.00000e+00 
   @DF-RKS iter   1:  -274.03738206128816    2.96581e-01   8.12542e-03 DIIS
   @DF-RKS iter   2:  -273.74042837929187    2.96954e-01   1.00758e-02 DIIS
   @DF-RKS iter   3:  -274.61980322196308   -8.79375e-01   8.09102e-04 DIIS
   @DF-RKS iter   4:  -274.62396540899726   -4.16219e-03   3.30846e-04 DIIS
   @DF-RKS iter   5:  -274.62477963612002   -8.14227e-04   7.34133e-05 DIIS
   @DF-RKS iter   6:  -274.62482220404820   -4.25679e-05   7.48609e-06 DIIS
   @DF-RKS iter   7:  -274.62482258427872   -3.80231e-07   3.61731e-06 DIIS
   @DF-RKS iter   8:  -274.62482268456790   -1.00289e-07   5.94292e-07 DIIS
  Energy and wave function converged.


  ==> Post-Iterations <==

    Orbital Energies [Eh]
    ---------------------

    Doubly Occupied:                                                      

       1A    -10.225215     2A    -10.216069     3A    -10.215942  
       4A    -10.215878     5A    -10.215149     6A    -10.215131  
       7A    -10.208141     8A     -0.854340     9A     -0.778069  
      10A     -0.754598    11A     -0.686205    12A     -0.619616  
      13A     -0.595128    14A     -0.562687    15A     -0.488110  
      16A     -0.460900    17A     -0.450720    18A     -0.444973  
      19A     -0.425841    20A     -0.396402    21A     -0.387811  
      22A     -0.379689    23A     -0.358968    24A     -0.349670  
      25A     -0.338167    26A     -0.320233    27A     -0.306734  
      28A     -0.302783  

    Virtual:                                                              

      29A      0.067856    30A      0.083411    31A      0.090266  
      32A      0.104915    33A      0.125001    34A      0.137343  
      35A      0.138834    36A      0.150019    37A      0.153881  
      38A      0.163168    39A      0.170679    40A      0.170998  
      41A      0.181146    42A      0.182638    43A      0.221275  
      44A      0.246042    45A      0.247631    46A      0.274338  
      47A      0.282262    48A      0.285608    49A      0.303067  
      50A      0.435719    51A      0.445266    52A      0.461070  
      53A      0.461795    54A      0.465753    55A      0.487106  
      56A      0.506873    57A      0.595183    58A      0.609906  
      59A      0.644766    60A      0.654530    61A      0.669250  
      62A      0.676726    63A      0.691405    64A      0.700168  
      65A      0.702281    66A      0.710268    67A      0.720032  
      68A      0.723231    69A      0.728443    70A      0.728962  
      71A      0.735011    72A      0.740802    73A      0.743866  
      74A      0.744867    75A      0.745471    76A      0.761776  
      77A      0.761945    78A      0.773679    79A      0.779376  
      80A      0.783280    81A      0.800062    82A      0.821769  
      83A      0.865608    84A      0.947912    85A      0.960393  
      86A      1.012598    87A      1.139600    88A      1.200708  
      89A      1.214420    90A      1.320418    91A      1.335155  
      92A      1.375328    93A      1.376506    94A      1.550716  
      95A      1.690950    96A      1.727063    97A      1.740502  
      98A      1.765481    99A      1.850584   100A      1.861911  
     101A      1.889107   102A      1.898124   103A      1.946449  
     104A      1.955636   105A      1.980688   106A      2.027644  
     107A      2.031930   108A      2.095546   109A      2.128249  
     110A      2.154649   111A      2.198248   112A      2.217399  
     113A      2.222354   114A      2.300028   115A      2.338780  
     116A      2.344723   117A      2.366128   118A      2.407513  
     119A      2.419571   120A      2.506250   121A      2.635346  
     122A      2.653803   123A      2.711755   124A      2.716715  
     125A      2.791852   126A      2.799265  

    Final Occupation by Irrep:
              A 
    DOCC [    28 ]

  @DF-RKS Final Energy:  -274.62482268456790

   => Energetics <=

    Nuclear Repulsion Energy =            329.5211559991223567
    One-Electron Energy =               -1021.4662335167141691
    Two-Electron Energy =                 449.9185063924959422
    DFT Exchange-Correlation Energy =     -32.5982515594719970
    Empirical Dispersion Energy =           0.0000000000000000
    VV10 Nonlocal Energy =                  0.0000000000000000
    Total Energy =                       -274.6248226845678460

Computation Completed

  //>>>>>>>>>>>>>>>>>>>>>>>>>>>>>>>>>>>//
  //                PBE0               //
  //<<<<<<<<<<<<<<<<<<<<<<<<<<<<<<<<<<<//

   => Loading Basis Set <=

    Name: DEF2-TZVP
    Role: ORBITAL
    Keyword: BASIS
    atoms 1-7  entry C          line   123 file /usr/share/psi4/basis/def2-tzvp.gbs 
    atoms 8-21 entry H          line    15 file /usr/share/psi4/basis/def2-tzvp.gbs 


         ---------------------------------------------------------
                                   SCF
               by Justin Turney, Rob Parrish, Andy Simmonett
                          and Daniel G. A. Smith
                              RKS Reference
                        4 Threads,   3814 MiB Core
         ---------------------------------------------------------

  ==> Geometry <==

    Molecular point group: c1
    Full point group: C1

    Geometry (in Angstrom), charge = 0, multiplicity = 1:

       Center              X                  Y                   Z               Mass       
    ------------   -----------------  -----------------  -----------------  -----------------
         C            1.021641924501    -0.000189304710    -0.316148779207    12.000000000000
         C            0.297337881001    -1.250618908610     0.177581093893    12.000000000000
         C            0.297457547501     1.250606419990     0.176888854193    12.000000000000
         C           -1.174436571699    -1.256254885810    -0.211412316007    12.000000000000
         C           -1.174400304499     1.256313844590    -0.211804493907    12.000000000000
         C           -1.883297954399     0.000108643290     0.276379682093    12.000000000000
         C            2.504493529501     0.000021144390     0.079326613393    12.000000000000
         H            0.951221191101    -0.000634624510    -1.412294991807     1.007825032230
         H            0.386289461901    -1.298236571310     1.271545924893     1.007825032230
         H            0.797290590101    -2.144278558510    -0.211091769707     1.007825032230
         H            0.797490792001     2.144128170790    -0.211999626907     1.007825032230
         H            0.386491679401     1.298493815790     1.270840829593     1.007825032230
         H           -1.666977843299    -2.149890863910     0.183920082793     1.007825032230
         H           -1.257017907499    -1.314330993410    -1.304253360307     1.007825032230
         H           -1.257289189199     1.314282816690    -1.304617734807     1.007825032230
         H           -1.666738245999     2.150040528590     0.183584921493     1.007825032230
         H           -2.927271562299     0.000077320690    -0.051471345907     1.007825032230
         H           -1.901122113299     0.000249731790     1.373648056993     1.007825032230
         H            2.761631818301    -0.882719949410     0.670592531393     1.007825032230
         H            3.161745845701     0.006779962990    -0.792546804407     1.007825032230
         H            2.758341841801     0.876194560590     0.681695823493     1.007825032230

  Running in c1 symmetry.

  Rotational constants: A =      0.14193  B =      0.07301  C =      0.05318 [cm^-1]
  Rotational constants: A =   4255.03817  B =   2188.69819  C =   1594.21738 [MHz]
  Nuclear repulsion =  329.521155999122357

  Charge       = 0
  Multiplicity = 1
  Electrons    = 56
  Nalpha       = 28
  Nbeta        = 28

  ==> Algorithm <==

  SCF Algorithm Type is DF.
  DIIS enabled.
  MOM disabled.
  Fractional occupation disabled.
  Guess Type is SAD.
  Energy threshold   = 1.00e-06
  Density threshold  = 1.00e-06
  Integral threshold = 0.00e+00

  ==> Primary Basis <==

  Basis Set: DEF2-TZVP
    Blend: DEF2-TZVP
    Number of shells: 133
    Number of basis function: 301
    Number of Cartesian functions: 336
    Spherical Harmonics?: true
    Max angular momentum: 3

  ==> DFT Potential <==

   => Composite Functional: PBE0 <= 

    PBE0 Hyb-GGA Exchange-Correlation Functional

    C. Adamo and V. Barone, J. Chem. Phys. 110, 6158 (1999)
    M. Ernzerhof and G. E. Scuseria, J. Chem. Phys. 110, 5029 (1999)

    Deriv               =              1
    GGA                 =           TRUE
    Meta                =          FALSE

    Exchange Hybrid     =           TRUE
    MP2 Hybrid          =          FALSE

   => Exchange Functionals <=

    0.7500   Perdew, Burke & Ernzerhof

   => Exact (HF) Exchange <=

    0.2500               HF 

   => Correlation Functionals <=

    1.0000   Perdew, Burke & Ernzerhof

   => Molecular Quadrature <=

    Radial Scheme          =       TREUTLER
    Pruning Scheme         =           FLAT
    Nuclear Scheme         =       TREUTLER

    BS radius alpha        =              1
    Pruning alpha          =              1
    Radial Points          =             75
    Spherical Points       =            302
    Total Points           =         472064
    Total Blocks           =           3469
    Max Points             =            256
    Max Functions          =            290

   => Loading Basis Set <=

    Name: (DEF2-TZVP AUX)
    Role: JKFIT
    Keyword: DF_BASIS_SCF
    atoms 1-7  entry C          line   203 file /usr/share/psi4/basis/def2-tzvp-jkfit.gbs 
    atoms 8-21 entry H          line    23 file /usr/share/psi4/basis/def2-tzvp-jkfit.gbs 


  Computing basis projection from DEF2-SV(P) to DEF2-TZVP

  ==> Pre-Iterations <==

   -------------------------------------------------------
    Irrep   Nso     Nmo     Nalpha   Nbeta   Ndocc  Nsocc
   -------------------------------------------------------
     A        301     301       0       0       0       0
   -------------------------------------------------------
    Total     301     301      28      28      28       0
   -------------------------------------------------------

  ==> Integral Setup <==

  DFHelper Memory: AOs need 0.533 GiB; user supplied 0.533 GiB. Using in-core AOs.

  ==> MemDFJK: Density-Fitted J/K Matrices <==

    J tasked:                   Yes
    K tasked:                   Yes
    wK tasked:                   No
    OpenMP threads:               4
    Memory [MiB]:               545
    Algorithm:                 Core
    Schwarz Cutoff:           1E-12
    Mask sparsity (%):       3.2627
    Fitting Condition:        1E-10

   => Auxiliary Basis Set <=

  Basis Set: (DEF2-TZVP AUX)
    Blend: DEF2-TZVP-JKFIT
    Number of shells: 259
    Number of basis function: 777
    Number of Cartesian functions: 903
    Spherical Harmonics?: true
    Max angular momentum: 4

  Cached 100.0% of DFT collocation blocks in 2.963 [GiB].

  Minimum eigenvalue in the overlap matrix is 9.2690174292E-05.
  Using Symmetric Orthogonalization.

  SCF Guess: Orbitals guess was supplied from a previous computation.

  ==> Iterations <==

                           Total Energy        Delta E     RMS |[F,P]|

   @DF-RKS iter   0:  -274.78601246096332   -2.74786e+02   5.31939e-03 
   @DF-RKS iter   1:  -274.94202807798587   -1.56016e-01   1.11941e-04 DIIS
   @DF-RKS iter   2:  -274.94201370247544    1.43755e-05   1.19375e-04 DIIS
   @DF-RKS iter   3:  -274.94266494427166   -6.51242e-04   1.76955e-05 DIIS
   @DF-RKS iter   4:  -274.94267665954027   -1.17153e-05   7.00737e-06 DIIS
   @DF-RKS iter   5:  -274.94267870523834   -2.04570e-06   9.38238e-07 DIIS
   @DF-RKS iter   6:  -274.94267874112882   -3.58905e-08   1.96370e-07 DIIS
  Energy and wave function converged.


  ==> Post-Iterations <==

    Orbital Energies [Eh]
    ---------------------

    Doubly Occupied:                                                      

       1A    -10.216947     2A    -10.209029     3A    -10.208856  
       4A    -10.208681     5A    -10.207868     6A    -10.207851  
       7A    -10.201955     8A     -0.859519     9A     -0.783843  
      10A     -0.760539    11A     -0.691906    12A     -0.624068  
      13A     -0.599433    14A     -0.564655    15A     -0.486510  
      16A     -0.459018    17A     -0.448848    18A     -0.445217  
      19A     -0.424042    20A     -0.394510    21A     -0.385463  
      22A     -0.377218    23A     -0.356666    24A     -0.347530  
      25A     -0.335994    26A     -0.318753    27A     -0.304506  
      28A     -0.300630  

    Virtual:                                                              

      29A      0.045429    30A      0.061946    31A      0.065363  
      32A      0.075990    33A      0.099877    34A      0.105490  
      35A      0.112630    36A      0.121782    37A      0.122005  
      38A      0.129402    39A      0.138829    40A      0.139155  
      41A      0.144322    42A      0.153521    43A      0.178533  
      44A      0.191170    45A      0.203644    46A      0.219029  
      47A      0.225717    48A      0.242190    49A      0.242363  
      50A      0.245859    51A      0.257137    52A      0.266468  
      53A      0.280980    54A      0.290974    55A      0.293908  
      56A      0.309466    57A      0.315255    58A      0.340601  
      59A      0.362951    60A      0.385417    61A      0.395461  
      62A      0.416796    63A      0.421346    64A      0.430011  
      65A      0.432651    66A      0.438310    67A      0.440776  
      68A      0.451615    69A      0.452484    70A      0.456082  
      71A      0.459839    72A      0.463572    73A      0.465997  
      74A      0.474890    75A      0.483039    76A      0.497926  
      77A      0.500058    78A      0.503194    79A      0.509813  
      80A      0.516201    81A      0.529171    82A      0.529995  
      83A      0.604789    84A      0.610417    85A      0.621694  
      86A      0.652309    87A      0.675998    88A      0.678754  
      89A      0.707258    90A      0.765650    91A      0.781922  
      92A      0.787066    93A      0.800578    94A      0.808699  
      95A      0.839513    96A      0.861693    97A      0.871978  
      98A      0.880917    99A      0.900542   100A      0.928369  
     101A      0.938853   102A      0.961857   103A      0.986946  
     104A      0.992287   105A      1.020051   106A      1.036156  
     107A      1.042700   108A      1.080134   109A      1.083588  
     110A      1.107102   111A      1.121632   112A      1.157678  
     113A      1.171481   114A      1.171683   115A      1.172711  
     116A      1.191513   117A      1.198172   118A      1.232361  
     119A      1.273454   120A      1.287029   121A      1.292941  
     122A      1.301318   123A      1.327178   124A      1.378896  
     125A      1.414446   126A      1.461913   127A      1.486152  
     128A      1.526389   129A      1.539863   130A      1.551696  
     131A      1.569226   132A      1.582690   133A      1.591185  
     134A      1.603540   135A      1.618711   136A      1.622155  
     137A      1.629866   138A      1.657948   139A      1.670819  
     140A      1.689263   141A      1.691425   142A      1.708866  
     143A      1.738444   144A      1.764192   145A      1.774028  
     146A      1.799026   147A      1.803246   148A      1.812697  
     149A      1.862292   150A      1.900792   151A      1.904833  
     152A      1.920443   153A      1.965886   154A      1.984103  
     155A      1.993571   156A      2.016116   157A      2.017062  
     158A      2.038772   159A      2.063007   160A      2.087900  
     161A      2.144433   162A      2.148242   163A      2.172061  
     164A      2.194294   165A      2.195326   166A      2.207970  
     167A      2.223731   168A      2.244521   169A      2.269811  
     170A      2.283345   171A      2.330981   172A      2.379606  
     173A      2.406552   174A      2.412102   175A      2.446900  
     176A      2.454800   177A      2.471528   178A      2.478975  
     179A      2.509761   180A      2.533426   181A      2.535842  
     182A      2.543101   183A      2.572370   184A      2.573038  
     185A      2.576925   186A      2.582097   187A      2.598468  
     188A      2.611901   189A      2.616179   190A      2.635486  
     191A      2.659208   192A      2.661709   193A      2.686085  
     194A      2.698561   195A      2.706178   196A      2.709103  
     197A      2.749633   198A      2.760051   199A      2.793131  
     200A      2.804467   201A      2.830283   202A      2.830523  
     203A      2.844713   204A      2.868520   205A      2.901803  
     206A      2.922026   207A      2.951969   208A      2.970921  
     209A      2.979153   210A      3.006019   211A      3.012448  
     212A      3.048303   213A      3.073309   214A      3.075056  
     215A      3.106278   216A      3.129685   217A      3.135264  
     218A      3.164794   219A      3.176568   220A      3.195691  
     221A      3.214681   222A      3.215980   223A      3.248082  
     224A      3.281108   225A      3.285996   226A      3.313457  
     227A      3.320555   228A      3.323263   229A      3.355732  
     230A      3.376534   231A      3.388974   232A      3.393356  
     233A      3.405904   234A      3.442504   235A      3.459953  
     236A      3.461659   237A      3.486755   238A      3.510001  
     239A      3.514438   240A      3.525464   241A      3.549139  
     242A      3.559963   243A      3.564020   244A      3.595631  
     245A      3.609875   246A      3.639135   247A      3.654124  
     248A      3.676215   249A      3.679713   250A      3.681367  
     251A      3.729606   252A      3.755907   253A      3.776315  
     254A      3.807357   255A      3.817828   256A      3.894210  
     257A      3.931454   258A      3.964315   259A      3.997888  
     260A      4.022900   261A      4.034100   262A      4.039745  
     263A      4.076335   264A      4.076648   265A      4.114488  
     266A      4.162405   267A      4.164502   268A      4.207031  
     269A      4.248028   270A      4.260658   271A      4.283384  
     272A      4.296391   273A      4.299024   274A      4.346316  
     275A      4.372077   276A      4.427168   277A      4.474107  
     278A      4.485354   279A      4.533277   280A      4.542867  
     281A      4.618699   282A      4.643477   283A      4.650626  
     284A      4.728579   285A      4.749942   286A      4.787670  
     287A      4.841495   288A      4.872130   289A      4.884479  
     290A      4.900065   291A      5.015138   292A      5.090661  
     293A      5.109560   294A      5.217333   295A     22.400480  
     296A     22.516654   297A     22.566619   298A     22.595099  
     299A     22.609677   300A     22.704604   301A     22.795805  

    Final Occupation by Irrep:
              A 
    DOCC [    28 ]

  @DF-RKS Final Energy:  -274.94267874112882

   => Energetics <=

    Nuclear Repulsion Energy =            329.5211559991223567
    One-Electron Energy =               -1022.1390540816430530
    Two-Electron Energy =                 450.3393949158055989
    DFT Exchange-Correlation Energy =     -32.6641755744137328
    Empirical Dispersion Energy =           0.0000000000000000
    VV10 Nonlocal Energy =                  0.0000000000000000
    Total Energy =                       -274.9426787411288160

Computation Completed


Properties will be evaluated at   0.000000,   0.000000,   0.000000 [a0]

Properties computed using the SCF density matrix

  Nuclear Dipole Moment: [e a0]
     X:     1.2413      Y:     0.0001      Z:     0.3258

  Electronic Dipole Moment: [e a0]
     X:    -1.2736      Y:    -0.0001      Z:    -0.3598

  Dipole Moment: [e a0]
     X:    -0.0323      Y:     0.0001      Z:    -0.0340     Total:     0.0469

  Dipole Moment: [D]
     X:    -0.0820      Y:     0.0001      Z:    -0.0865     Total:     0.1192


*** tstop() called on thinkpad at Sat Jul 10 14:22:16 2021
Module time:
	user time   =     119.64 seconds =       1.99 minutes
	system time =       2.19 seconds =       0.04 minutes
	total time  =         36 seconds =       0.60 minutes
Total time:
	user time   =     119.64 seconds =       1.99 minutes
	system time =       2.19 seconds =       0.04 minutes
	total time  =         36 seconds =       0.60 minutes

    Psi4 stopped on: Saturday, 10 July 2021 02:22PM
    Psi4 wall time for execution: 0:00:36.48

*** Psi4 exiting successfully. Buy a developer a beer!
