
    -----------------------------------------------------------------------
          Psi4: An Open-Source Ab Initio Electronic Structure Package
                               Psi4 1.3.2 release

                         Git: Rev {} zzzzzzz 


    R. M. Parrish, L. A. Burns, D. G. A. Smith, A. C. Simmonett,
    A. E. DePrince III, E. G. Hohenstein, U. Bozkaya, A. Yu. Sokolov,
    R. Di Remigio, R. M. Richard, J. F. Gonthier, A. M. James,
    H. R. McAlexander, A. Kumar, M. Saitow, X. Wang, B. P. Pritchard,
    P. Verma, H. F. Schaefer III, K. Patkowski, R. A. King, E. F. Valeev,
    F. A. Evangelista, J. M. Turney, T. D. Crawford, and C. D. Sherrill,
    J. Chem. Theory Comput. 13(7) pp 3185--3197 (2017).
    (doi: 10.1021/acs.jctc.7b00174)


                         Additional Contributions by
    P. Kraus, H. Kruse, M. H. Lechner, M. C. Schieber, R. A. Shaw,
    A. Alenaizan, R. Galvelis, Z. L. Glick, S. Lehtola, and J. P. Misiewicz

    -----------------------------------------------------------------------


    Psi4 started on: Tuesday, 18 January 2022 09:47PM

    Process ID: 837664
    Host:       lenovo
    PSIDATADIR: /usr/share/psi4
    Memory:     500.0 MiB
    Threads:    4
    
  ==> Input File <==

--------------------------------------------------------------------------
# PBE0/def2-QZVP calculation on methylcyclohexane conformer #1 

memory 4 gb

molecule {
	    C    -1.1095788642   0.0000421088  -0.5173760840
	    C    -0.2371911735   1.2538500872  -0.6256558751
	    C    -0.2373065295  -1.2538472571  -0.6256133330
	    C     0.9232150254   1.2569141188   0.3629919555
	    C     0.9230786172  -1.2569833692   0.3630567435
	    C     1.7717397798  -0.0000842569   0.2209982710
	    C    -1.9692772405   0.0001028398   0.7417473964
	    H    -1.7957314975   0.0000606184  -1.3728857462
	    H    -0.8538328424   2.1487527424  -0.4904864530
	    H     0.1711017413   1.3094516562  -1.6424906919
	    H     0.1710005695  -1.3095119892  -1.6424391841
	    H    -0.8540315594  -2.1486900871  -0.4904311434
	    H     0.5410089072   1.3223877590   1.3883671425
	    H     1.5377490490   2.1493641079   0.2101511831
	    H     1.5375182250  -2.1495093449   0.2102817571
	    H     0.5408436961  -1.3223517185   1.3884288345
	    H     2.2502712986  -0.0001344288  -0.7670543102
	    H     2.5806050116  -0.0001088940   0.9580214078
	    H    -1.3702856024  -0.0000265841   1.6551935732
	    H    -2.6130476994   0.8833324610   0.7731000135
	    H    -2.6132983885  -0.8829480869   0.7730149087
}

# It is beneficial to initialize larger-basis calculations with
# a small reasonable basis; use def2-SV(P) for this purpose
set basis_guess def2-SV(P)
set basis def2-QZVP
energy('pbe0')
--------------------------------------------------------------------------

  Memory set to   3.725 GiB by Python driver.

*** tstart() called on lenovo
*** at Tue Jan 18 21:47:25 2022


  //>>>>>>>>>>>>>>>>>>>>>>>>>>>>>>>>>>>//
  //    Guess SCF, DEF2-SV(P) Basis    //
  //<<<<<<<<<<<<<<<<<<<<<<<<<<<<<<<<<<<//

   => Loading Basis Set <=

    Name: DEF2-SV(P)
    Role: ORBITAL
    Keyword: BASIS
    atoms 1-7  entry C          line    88 file /usr/share/psi4/basis/def2-sv_p_.gbs 
    atoms 8-21 entry H          line    15 file /usr/share/psi4/basis/def2-sv_p_.gbs 


         ---------------------------------------------------------
                           SCF Castup computation                  
         ---------------------------------------------------------
                                   SCF
               by Justin Turney, Rob Parrish, Andy Simmonett
                          and Daniel G. A. Smith
                              RKS Reference
                        4 Threads,   3814 MiB Core
         ---------------------------------------------------------

  ==> Geometry <==

    Molecular point group: c1
    Full point group: C1

    Geometry (in Angstrom), charge = 0, multiplicity = 1:

       Center              X                  Y                   Z               Mass       
    ------------   -----------------  -----------------  -----------------  -----------------
         C           -1.109578864201     0.000042108780    -0.517376083992    12.000000000000
         C           -0.237191173501     1.253850087180    -0.625655875092    12.000000000000
         C           -0.237306529501    -1.253847257120    -0.625613332992    12.000000000000
         C            0.923215025399     1.256914118780     0.362991955508    12.000000000000
         C            0.923078617199    -1.256983369220     0.363056743508    12.000000000000
         C            1.771739779799    -0.000084256920     0.220998271008    12.000000000000
         C           -1.969277240501     0.000102839780     0.741747396408    12.000000000000
         H           -1.795731497501     0.000060618380    -1.372885746192     1.007825032230
         H           -0.853832842401     2.148752742380    -0.490486452992     1.007825032230
         H            0.171101741299     1.309451656180    -1.642490691892     1.007825032230
         H            0.171000569499    -1.309511989220    -1.642439184092     1.007825032230
         H           -0.854031559401    -2.148690087120    -0.490431143392     1.007825032230
         H            0.541008907199     1.322387758980     1.388367142508     1.007825032230
         H            1.537749048999     2.149364107880     0.210151183108     1.007825032230
         H            1.537518224999    -2.149509344920     0.210281757108     1.007825032230
         H            0.540843696099    -1.322351718520     1.388428834508     1.007825032230
         H            2.250271298599    -0.000134428820    -0.767054310192     1.007825032230
         H            2.580605011599    -0.000108894020     0.958021407808     1.007825032230
         H           -1.370285602401    -0.000026584120     1.655193573208     1.007825032230
         H           -2.613047699401     0.883332460980     0.773100013508     1.007825032230
         H           -2.613298388501    -0.882948086920     0.773014908708     1.007825032230

  Running in c1 symmetry.

  Rotational constants: A =      0.11801  B =      0.08487  C =      0.06448 [cm^-1]
  Rotational constants: A =   3537.86119  B =   2544.37041  C =   1933.20741 [MHz]
  Nuclear repulsion =  333.886610125007905

  Charge       = 0
  Multiplicity = 1
  Electrons    = 56
  Nalpha       = 28
  Nbeta        = 28

  ==> Algorithm <==

  SCF Algorithm Type is DF.
  DIIS enabled.
  MOM disabled.
  Fractional occupation disabled.
  Guess Type is SAD.
  Energy threshold   = 1.00e-06
  Density threshold  = 1.00e-06
  Integral threshold = 0.00e+00

  ==> Primary Basis <==

  Basis Set: DEF2-SV(P)
    Blend: DEF2-SV(P)
    Number of shells: 70
    Number of basis function: 126
    Number of Cartesian functions: 133
    Spherical Harmonics?: true
    Max angular momentum: 2

  ==> DFT Potential <==

   => Composite Functional: PBE0 <= 

    PBE0 Hyb-GGA Exchange-Correlation Functional

    C. Adamo and V. Barone, J. Chem. Phys. 110, 6158 (1999)
    M. Ernzerhof and G. E. Scuseria, J. Chem. Phys. 110, 5029 (1999)

    Deriv               =              1
    GGA                 =           TRUE
    Meta                =          FALSE

    Exchange Hybrid     =           TRUE
    MP2 Hybrid          =          FALSE

   => Exchange Functionals <=

    0.7500   Perdew, Burke & Ernzerhof

   => Exact (HF) Exchange <=

    0.2500               HF 

   => Correlation Functionals <=

    1.0000   Perdew, Burke & Ernzerhof

   => Molecular Quadrature <=

    Radial Scheme          =       TREUTLER
    Pruning Scheme         =           FLAT
    Nuclear Scheme         =       TREUTLER

    BS radius alpha        =              1
    Pruning alpha          =              1
    Radial Points          =             75
    Spherical Points       =            302
    Total Points           =         469460
    Total Blocks           =           3443
    Max Points             =            256
    Max Functions          =            125

   => Loading Basis Set <=

    Name: (DEF2-SV(P) AUX)
    Role: JKFIT
    Keyword: DF_BASIS_SCF
    atoms 1-7  entry C          line   203 file /usr/share/psi4/basis/def2-sv_p_-jkfit.gbs 
    atoms 8-21 entry H          line    23 file /usr/share/psi4/basis/def2-sv_p_-jkfit.gbs 

  ==> Pre-Iterations <==

   -------------------------------------------------------
    Irrep   Nso     Nmo     Nalpha   Nbeta   Ndocc  Nsocc
   -------------------------------------------------------
     A        126     126       0       0       0       0
   -------------------------------------------------------
    Total     126     126      28      28      28       0
   -------------------------------------------------------

  ==> Integral Setup <==

  ==> DiskDFJK: Density-Fitted J/K Matrices <==

    J tasked:                  Yes
    K tasked:                  Yes
    wK tasked:                  No
    OpenMP threads:              4
    Integrals threads:           4
    Memory [MiB]:             1434
    Algorithm:                Core
    Integral Cache:           NONE
    Schwarz Cutoff:          1E-12
    Fitting Condition:       1E-10

   => Auxiliary Basis Set <=

  Basis Set: (DEF2-SV(P) AUX)
    Blend: DEF2-SV_P_-JKFIT
    Number of shells: 259
    Number of basis function: 777
    Number of Cartesian functions: 903
    Spherical Harmonics?: true
    Max angular momentum: 4

  Cached 100.0% of DFT collocation blocks in 1.393 [GiB].

  Minimum eigenvalue in the overlap matrix is 1.5293896382E-03.
  Using Symmetric Orthogonalization.

  SCF Guess: Superposition of Atomic Densities via on-the-fly atomic UHF.

  ==> Iterations <==

                           Total Energy        Delta E     RMS |[F,P]|

   @DF-RKS iter SAD:  -274.33825370474273   -2.74338e+02   0.00000e+00 
   @DF-RKS iter   1:  -274.03301380286757    3.05240e-01   8.19962e-03 DIIS
   @DF-RKS iter   2:  -273.68051664976997    3.52497e-01   1.04836e-02 DIIS
   @DF-RKS iter   3:  -274.62213294302558   -9.41616e-01   8.05399e-04 DIIS
   @DF-RKS iter   4:  -274.62635670478932   -4.22376e-03   2.87026e-04 DIIS
   @DF-RKS iter   5:  -274.62693665271286   -5.79948e-04   8.88992e-05 DIIS
   @DF-RKS iter   6:  -274.62699799286463   -6.13402e-05   8.83940e-06 DIIS
   @DF-RKS iter   7:  -274.62699859732965   -6.04465e-07   3.48769e-06 DIIS
   @DF-RKS iter   8:  -274.62699869476052   -9.74309e-08   7.01835e-07 DIIS
  Energy and wave function converged.


  ==> Post-Iterations <==

    Orbital Energies [Eh]
    ---------------------

    Doubly Occupied:                                                      

       1A    -10.225732     2A    -10.215877     3A    -10.215733  
       4A    -10.215677     5A    -10.215223     6A    -10.215204  
       7A    -10.208939     8A     -0.854334     9A     -0.775432  
      10A     -0.754163    11A     -0.689617    12A     -0.617988  
      13A     -0.605616    14A     -0.539785    15A     -0.499983  
      16A     -0.460730    17A     -0.458222    18A     -0.439468  
      19A     -0.413801    20A     -0.412254    21A     -0.387283  
      22A     -0.370594    23A     -0.365286    24A     -0.348269  
      25A     -0.343304    26A     -0.316891    27A     -0.303440  
      28A     -0.303326  

    Virtual:                                                              

      29A      0.059600    30A      0.080708    31A      0.100198  
      32A      0.109241    33A      0.126999    34A      0.130886  
      35A      0.145357    36A      0.151617    37A      0.155053  
      38A      0.157831    39A      0.166565    40A      0.179391  
      41A      0.200658    42A      0.205943    43A      0.225348  
      44A      0.234105    45A      0.248798    46A      0.255167  
      47A      0.268911    48A      0.295117    49A      0.296147  
      50A      0.424399    51A      0.437124    52A      0.448043  
      53A      0.459842    54A      0.474871    55A      0.477430  
      56A      0.485056    57A      0.573727    58A      0.630803  
      59A      0.636948    60A      0.644435    61A      0.658164  
      62A      0.678971    63A      0.682318    64A      0.696816  
      65A      0.698290    66A      0.701094    67A      0.711709  
      68A      0.718783    69A      0.730733    70A      0.730914  
      71A      0.743580    72A      0.744544    73A      0.745568  
      74A      0.748212    75A      0.755573    76A      0.757807  
      77A      0.767253    78A      0.784838    79A      0.791457  
      80A      0.801432    81A      0.827241    82A      0.855829  
      83A      0.890476    84A      0.925484    85A      1.009556  
      86A      1.092794    87A      1.163134    88A      1.189443  
      89A      1.208029    90A      1.315256    91A      1.326971  
      92A      1.371080    93A      1.380520    94A      1.563311  
      95A      1.611480    96A      1.699429    97A      1.728595  
      98A      1.792031    99A      1.806753   100A      1.826283  
     101A      1.910132   102A      1.936849   103A      1.955032  
     104A      1.971680   105A      1.983962   106A      2.004377  
     107A      2.091275   108A      2.112388   109A      2.113420  
     110A      2.121133   111A      2.206536   112A      2.227025  
     113A      2.255852   114A      2.295425   115A      2.317937  
     116A      2.336137   117A      2.374488   118A      2.392163  
     119A      2.449103   120A      2.555380   121A      2.652095  
     122A      2.656567   123A      2.685909   124A      2.711281  
     125A      2.722814   126A      2.772029  

    Final Occupation by Irrep:
              A 
    DOCC [    28 ]

  @DF-RKS Final Energy:  -274.62699869476052

   => Energetics <=

    Nuclear Repulsion Energy =            333.8866101250079055
    One-Electron Energy =               -1030.2023220339692671
    Two-Electron Energy =                 454.2887136021689685
    DFT Exchange-Correlation Energy =     -32.6000003879681017
    Empirical Dispersion Energy =           0.0000000000000000
    VV10 Nonlocal Energy =                  0.0000000000000000
    Total Energy =                       -274.6269986947605162

Computation Completed

  //>>>>>>>>>>>>>>>>>>>>>>>>>>>>>>>>>>>//
  //                PBE0               //
  //<<<<<<<<<<<<<<<<<<<<<<<<<<<<<<<<<<<//

   => Loading Basis Set <=

    Name: DEF2-QZVP
    Role: ORBITAL
    Keyword: BASIS
    atoms 1-7  entry C          line   194 file /usr/share/psi4/basis/def2-qzvp.gbs 
    atoms 8-21 entry H          line    15 file /usr/share/psi4/basis/def2-qzvp.gbs 


         ---------------------------------------------------------
                                   SCF
               by Justin Turney, Rob Parrish, Andy Simmonett
                          and Daniel G. A. Smith
                              RKS Reference
                        4 Threads,   3814 MiB Core
         ---------------------------------------------------------

  ==> Geometry <==

    Molecular point group: c1
    Full point group: C1

    Geometry (in Angstrom), charge = 0, multiplicity = 1:

       Center              X                  Y                   Z               Mass       
    ------------   -----------------  -----------------  -----------------  -----------------
         C           -1.109578864201     0.000042108780    -0.517376083992    12.000000000000
         C           -0.237191173501     1.253850087180    -0.625655875092    12.000000000000
         C           -0.237306529501    -1.253847257120    -0.625613332992    12.000000000000
         C            0.923215025399     1.256914118780     0.362991955508    12.000000000000
         C            0.923078617199    -1.256983369220     0.363056743508    12.000000000000
         C            1.771739779799    -0.000084256920     0.220998271008    12.000000000000
         C           -1.969277240501     0.000102839780     0.741747396408    12.000000000000
         H           -1.795731497501     0.000060618380    -1.372885746192     1.007825032230
         H           -0.853832842401     2.148752742380    -0.490486452992     1.007825032230
         H            0.171101741299     1.309451656180    -1.642490691892     1.007825032230
         H            0.171000569499    -1.309511989220    -1.642439184092     1.007825032230
         H           -0.854031559401    -2.148690087120    -0.490431143392     1.007825032230
         H            0.541008907199     1.322387758980     1.388367142508     1.007825032230
         H            1.537749048999     2.149364107880     0.210151183108     1.007825032230
         H            1.537518224999    -2.149509344920     0.210281757108     1.007825032230
         H            0.540843696099    -1.322351718520     1.388428834508     1.007825032230
         H            2.250271298599    -0.000134428820    -0.767054310192     1.007825032230
         H            2.580605011599    -0.000108894020     0.958021407808     1.007825032230
         H           -1.370285602401    -0.000026584120     1.655193573208     1.007825032230
         H           -2.613047699401     0.883332460980     0.773100013508     1.007825032230
         H           -2.613298388501    -0.882948086920     0.773014908708     1.007825032230

  Running in c1 symmetry.

  Rotational constants: A =      0.11801  B =      0.08487  C =      0.06448 [cm^-1]
  Rotational constants: A =   3537.86119  B =   2544.37041  C =   1933.20741 [MHz]
  Nuclear repulsion =  333.886610125007905

  Charge       = 0
  Multiplicity = 1
  Electrons    = 56
  Nalpha       = 28
  Nbeta        = 28

  ==> Algorithm <==

  SCF Algorithm Type is DF.
  DIIS enabled.
  MOM disabled.
  Fractional occupation disabled.
  Guess Type is SAD.
  Energy threshold   = 1.00e-06
  Density threshold  = 1.00e-06
  Integral threshold = 0.00e+00

  ==> Primary Basis <==

  Basis Set: DEF2-QZVP
    Blend: DEF2-QZVP
    Number of shells: 259
    Number of basis function: 819
    Number of Cartesian functions: 994
    Spherical Harmonics?: true
    Max angular momentum: 4

  ==> DFT Potential <==

   => Composite Functional: PBE0 <= 

    PBE0 Hyb-GGA Exchange-Correlation Functional

    C. Adamo and V. Barone, J. Chem. Phys. 110, 6158 (1999)
    M. Ernzerhof and G. E. Scuseria, J. Chem. Phys. 110, 5029 (1999)

    Deriv               =              1
    GGA                 =           TRUE
    Meta                =          FALSE

    Exchange Hybrid     =           TRUE
    MP2 Hybrid          =          FALSE

   => Exchange Functionals <=

    0.7500   Perdew, Burke & Ernzerhof

   => Exact (HF) Exchange <=

    0.2500               HF 

   => Correlation Functionals <=

    1.0000   Perdew, Burke & Ernzerhof

   => Molecular Quadrature <=

    Radial Scheme          =       TREUTLER
    Pruning Scheme         =           FLAT
    Nuclear Scheme         =       TREUTLER

    BS radius alpha        =              1
    Pruning alpha          =              1
    Radial Points          =             75
    Spherical Points       =            302
    Total Points           =         474032
    Total Blocks           =           3458
    Max Points             =            256
    Max Functions          =            729

   => Loading Basis Set <=

    Name: (DEF2-QZVP AUX)
    Role: JKFIT
    Keyword: DF_BASIS_SCF
    atoms 1-7  entry C          line   203 file /usr/share/psi4/basis/def2-qzvp-jkfit.gbs 
    atoms 8-21 entry H          line    23 file /usr/share/psi4/basis/def2-qzvp-jkfit.gbs 


  Computing basis projection from DEF2-SV(P) to DEF2-QZVP

  ==> Pre-Iterations <==

   -------------------------------------------------------
    Irrep   Nso     Nmo     Nalpha   Nbeta   Ndocc  Nsocc
   -------------------------------------------------------
     A        819     819       0       0       0       0
   -------------------------------------------------------
    Total     819     819      28      28      28       0
   -------------------------------------------------------

  ==> Integral Setup <==

  ==> DiskDFJK: Density-Fitted J/K Matrices <==

    J tasked:                  Yes
    K tasked:                  Yes
    wK tasked:                  No
    OpenMP threads:              4
    Integrals threads:           4
    Memory [MiB]:             1851
    Algorithm:                Disk
    Integral Cache:           NONE
    Schwarz Cutoff:          1E-12
    Fitting Condition:       1E-10

   => Auxiliary Basis Set <=

  Basis Set: (DEF2-QZVP AUX)
    Blend: DEF2-QZVP-JKFIT
    Number of shells: 259
    Number of basis function: 777
    Number of Cartesian functions: 903
    Spherical Harmonics?: true
    Max angular momentum: 4

  Cached 16.7% of DFT collocation blocks in 1.110 [GiB].

  Minimum eigenvalue in the overlap matrix is 8.9040799031E-06.
  Using Symmetric Orthogonalization.

  SCF Guess: Orbitals guess was supplied from a previous computation.

  ==> Iterations <==

                           Total Energy        Delta E     RMS |[F,P]|

   @DF-RKS iter   0:  -274.74116500374146   -2.74741e+02   3.68567e-03 
   @DF-RKS iter   1:  -274.96279271711416   -2.21628e-01   5.67957e-05 DIIS
   @DF-RKS iter   2:  -274.96270271646762    9.00006e-05   5.63104e-05 DIIS
   @DF-RKS iter   3:  -274.96373296930494   -1.03025e-03   1.20156e-05 DIIS
   @DF-RKS iter   4:  -274.96377656217152   -4.35929e-05   2.98283e-06 DIIS
   @DF-RKS iter   5:  -274.96377914281084   -2.58064e-06   6.15833e-07 DIIS
   @DF-RKS iter   6:  -274.96377925333155   -1.10521e-07   1.25407e-07 DIIS
  Energy and wave function converged.


  ==> Post-Iterations <==

    Orbital Energies [Eh]
    ---------------------

    Doubly Occupied:                                                      

       1A    -10.219779     2A    -10.211139     3A    -10.210867  
       4A    -10.210745     5A    -10.210243     6A    -10.210235  
       7A    -10.204351     8A     -0.859565     9A     -0.781431  
      10A     -0.760113    11A     -0.695447    12A     -0.622628  
      13A     -0.609731    14A     -0.542257    15A     -0.498374  
      16A     -0.459077    17A     -0.458279    18A     -0.437585  
      19A     -0.411994    20A     -0.410183    21A     -0.384980  
      22A     -0.368502    23A     -0.363430    24A     -0.345994  
      25A     -0.341140    26A     -0.315185    27A     -0.301402  
      28A     -0.301274  

    Virtual:                                                              

      29A      0.024573    30A      0.038298    31A      0.048948  
      32A      0.054025    33A      0.074010    34A      0.076213  
      35A      0.078417    36A      0.088343    37A      0.092181  
      38A      0.103347    39A      0.115442    40A      0.117461  
      41A      0.134582    42A      0.135339    43A      0.143351  
      44A      0.163397    45A      0.163787    46A      0.179374  
      47A      0.181171    48A      0.188235    49A      0.194546  
      50A      0.204355    51A      0.210556    52A      0.219764  
      53A      0.224729    54A      0.229910    55A      0.232993  
      56A      0.249654    57A      0.263237    58A      0.270639  
      59A      0.285534    60A      0.294720    61A      0.303383  
      62A      0.305246    63A      0.305311    64A      0.312353  
      65A      0.317119    66A      0.318762    67A      0.329698  
      68A      0.337340    69A      0.338194    70A      0.340756  
      71A      0.352600    72A      0.353565    73A      0.356696  
      74A      0.365254    75A      0.377429    76A      0.384254  
      77A      0.385845    78A      0.391843    79A      0.391848  
      80A      0.399442    81A      0.403300    82A      0.409762  
      83A      0.466573    84A      0.487748    85A      0.513258  
      86A      0.527806    87A      0.538257    88A      0.544609  
      89A      0.557863    90A      0.567411    91A      0.571820  
      92A      0.580809    93A      0.581010    94A      0.594985  
      95A      0.600987    96A      0.606740    97A      0.616706  
      98A      0.622907    99A      0.629782   100A      0.631174  
     101A      0.635345   102A      0.638546   103A      0.649500  
     104A      0.656731   105A      0.677928   106A      0.689926  
     107A      0.708249   108A      0.747038   109A      0.765146  
     110A      0.784464   111A      0.785645   112A      0.796113  
     113A      0.802650   114A      0.812194   115A      0.819712  
     116A      0.820081   117A      0.822577   118A      0.832831  
     119A      0.837795   120A      0.846790   121A      0.852305  
     122A      0.857862   123A      0.860713   124A      0.874087  
     125A      0.875850   126A      0.880606   127A      0.889095  
     128A      0.889821   129A      0.900578   130A      0.906393  
     131A      0.908735   132A      0.927229   133A      0.928348  
     134A      0.943962   135A      0.955629   136A      0.959654  
     137A      0.964648   138A      0.978271   139A      0.993654  
     140A      0.994783   141A      0.997453   142A      1.004877  
     143A      1.011818   144A      1.021859   145A      1.022558  
     146A      1.040280   147A      1.067238   148A      1.072916  
     149A      1.076804   150A      1.103380   151A      1.106817  
     152A      1.124297   153A      1.151903   154A      1.157911  
     155A      1.166540   156A      1.174388   157A      1.182919  
     158A      1.184295   159A      1.189756   160A      1.203910  
     161A      1.207276   162A      1.227911   163A      1.242486  
     164A      1.243071   165A      1.259727   166A      1.270632  
     167A      1.278469   168A      1.316166   169A      1.321338  
     170A      1.344338   171A      1.349206   172A      1.358681  
     173A      1.367446   174A      1.379674   175A      1.396796  
     176A      1.400259   177A      1.425950   178A      1.435984  
     179A      1.451650   180A      1.456133   181A      1.456183  
     182A      1.487567   183A      1.489115   184A      1.498943  
     185A      1.500100   186A      1.508759   187A      1.531064  
     188A      1.540833   189A      1.547702   190A      1.577349  
     191A      1.579494   192A      1.598332   193A      1.599759  
     194A      1.621257   195A      1.650069   196A      1.660994  
     197A      1.684424   198A      1.699789   199A      1.710624  
     200A      1.748687   201A      1.752998   202A      1.761869  
     203A      1.767119   204A      1.770993   205A      1.788928  
     206A      1.813303   207A      1.821891   208A      1.851913  
     209A      1.853293   210A      1.890746   211A      1.906068  
     212A      1.907231   213A      1.927993   214A      1.942370  
     215A      1.950788   216A      1.959338   217A      1.982055  
     218A      1.983406   219A      1.987054   220A      1.993552  
     221A      2.011828   222A      2.013928   223A      2.028964  
     224A      2.030420   225A      2.037009   226A      2.053353  
     227A      2.069660   228A      2.078261   229A      2.083282  
     230A      2.092576   231A      2.109466   232A      2.113557  
     233A      2.118769   234A      2.121228   235A      2.149803  
     236A      2.150301   237A      2.157189   238A      2.164165  
     239A      2.179206   240A      2.207998   241A      2.216234  
     242A      2.216991   243A      2.219585   244A      2.231618  
     245A      2.233387   246A      2.241915   247A      2.253135  
     248A      2.265502   249A      2.275833   250A      2.278398  
     251A      2.282816   252A      2.288566   253A      2.294545  
     254A      2.310646   255A      2.330617   256A      2.332616  
     257A      2.345002   258A      2.348331   259A      2.359440  
     260A      2.360826   261A      2.390980   262A      2.394117  
     263A      2.395865   264A      2.399535   265A      2.429459  
     266A      2.442866   267A      2.449458   268A      2.457264  
     269A      2.485621   270A      2.488812   271A      2.499699  
     272A      2.508131   273A      2.510207   274A      2.537128  
     275A      2.563623   276A      2.569955   277A      2.582307  
     278A      2.597820   279A      2.598377   280A      2.603990  
     281A      2.612677   282A      2.632759   283A      2.639929  
     284A      2.652602   285A      2.661354   286A      2.661582  
     287A      2.664077   288A      2.676506   289A      2.677425  
     290A      2.691492   291A      2.698176   292A      2.699024  
     293A      2.720211   294A      2.722303   295A      2.728363  
     296A      2.743191   297A      2.745380   298A      2.763820  
     299A      2.777038   300A      2.799737   301A      2.803899  
     302A      2.834014   303A      2.856487   304A      2.858423  
     305A      2.873729   306A      2.881458   307A      2.887103  
     308A      2.891377   309A      2.896699   310A      2.915025  
     311A      2.922290   312A      2.922670   313A      2.935508  
     314A      2.941074   315A      2.953141   316A      2.967342  
     317A      2.973200   318A      2.978806   319A      2.985576  
     320A      3.004468   321A      3.009251   322A      3.012399  
     323A      3.024029   324A      3.038573   325A      3.055417  
     326A      3.056001   327A      3.076037   328A      3.084182  
     329A      3.088729   330A      3.103235   331A      3.103538  
     332A      3.117311   333A      3.125529   334A      3.139632  
     335A      3.167945   336A      3.172528   337A      3.192094  
     338A      3.206891   339A      3.214616   340A      3.232999  
     341A      3.239104   342A      3.244711   343A      3.247704  
     344A      3.267877   345A      3.286813   346A      3.301567  
     347A      3.303006   348A      3.357818   349A      3.371529  
     350A      3.375410   351A      3.377794   352A      3.389386  
     353A      3.391964   354A      3.409730   355A      3.422714  
     356A      3.439614   357A      3.447434   358A      3.450243  
     359A      3.456961   360A      3.485963   361A      3.500423  
     362A      3.516477   363A      3.530635   364A      3.558619  
     365A      3.561822   366A      3.564810   367A      3.583133  
     368A      3.611869   369A      3.617423   370A      3.636436  
     371A      3.652420   372A      3.668933   373A      3.669871  
     374A      3.681459   375A      3.690579   376A      3.706513  
     377A      3.736156   378A      3.743364   379A      3.746884  
     380A      3.783964   381A      3.802273   382A      3.813299  
     383A      3.823140   384A      3.828196   385A      3.852561  
     386A      3.869048   387A      3.874955   388A      3.915432  
     389A      3.918277   390A      3.924017   391A      3.927443  
     392A      3.939599   393A      3.951276   394A      3.977963  
     395A      3.982707   396A      3.991332   397A      4.005978  
     398A      4.018041   399A      4.032638   400A      4.034993  
     401A      4.053977   402A      4.067128   403A      4.086773  
     404A      4.092159   405A      4.178655   406A      4.192904  
     407A      4.194429   408A      4.234682   409A      4.238795  
     410A      4.267124   411A      4.279994   412A      4.301311  
     413A      4.383489   414A      4.459177   415A      4.499009  
     416A      4.511575   417A      4.548744   418A      4.596326  
     419A      4.684940   420A      4.704172   421A      4.781828  
     422A      4.820207   423A      4.843594   424A      4.882131  
     425A      4.892898   426A      4.895743   427A      4.934146  
     428A      4.949061   429A      4.969456   430A      5.093273  
     431A      5.129901   432A      5.130596   433A      5.158197  
     434A      5.212264   435A      5.230048   436A      5.290231  
     437A      5.351703   438A      5.373318   439A      5.402142  
     440A      5.441515   441A      5.464397   442A      5.502767  
     443A      5.531563   444A      5.534716   445A      5.553167  
     446A      5.560365   447A      5.563694   448A      5.583379  
     449A      5.622754   450A      5.633610   451A      5.654694  
     452A      5.669527   453A      5.712249   454A      5.747792  
     455A      5.755101   456A      5.772671   457A      5.787067  
     458A      5.792162   459A      5.793481   460A      5.800768  
     461A      5.825185   462A      5.826151   463A      5.836745  
     464A      5.859939   465A      5.862543   466A      5.862705  
     467A      5.882007   468A      5.885223   469A      5.898292  
     470A      5.910868   471A      5.920387   472A      5.925099  
     473A      5.942415   474A      5.951237   475A      5.982176  
     476A      5.994056   477A      6.006719   478A      6.018629  
     479A      6.031679   480A      6.047476   481A      6.064281  
     482A      6.066356   483A      6.074328   484A      6.079482  
     485A      6.093866   486A      6.094293   487A      6.101885  
     488A      6.111115   489A      6.126855   490A      6.128881  
     491A      6.138821   492A      6.140390   493A      6.147788  
     494A      6.170233   495A      6.181103   496A      6.187727  
     497A      6.192511   498A      6.218553   499A      6.231232  
     500A      6.241987   501A      6.260070   502A      6.263477  
     503A      6.278949   504A      6.294314   505A      6.302865  
     506A      6.304099   507A      6.315230   508A      6.318472  
     509A      6.338084   510A      6.348039   511A      6.350341  
     512A      6.357995   513A      6.373281   514A      6.378471  
     515A      6.390610   516A      6.395185   517A      6.398982  
     518A      6.400352   519A      6.415973   520A      6.431694  
     521A      6.442963   522A      6.457332   523A      6.462401  
     524A      6.473153   525A      6.495857   526A      6.512449  
     527A      6.516462   528A      6.519417   529A      6.530012  
     530A      6.540380   531A      6.552411   532A      6.565158  
     533A      6.581540   534A      6.585953   535A      6.594631  
     536A      6.609596   537A      6.616370   538A      6.635402  
     539A      6.640632   540A      6.663624   541A      6.684245  
     542A      6.706915   543A      6.711797   544A      6.723770  
     545A      6.734662   546A      6.758662   547A      6.786224  
     548A      6.786495   549A      6.802201   550A      6.810416  
     551A      6.820953   552A      6.828857   553A      6.829748  
     554A      6.846317   555A      6.851312   556A      6.871193  
     557A      6.884335   558A      6.887002   559A      6.910735  
     560A      6.926475   561A      6.928190   562A      6.967790  
     563A      6.981101   564A      6.985387   565A      6.993022  
     566A      7.009589   567A      7.028761   568A      7.033459  
     569A      7.059592   570A      7.067216   571A      7.083454  
     572A      7.097146   573A      7.099293   574A      7.124080  
     575A      7.129014   576A      7.146581   577A      7.148386  
     578A      7.197617   579A      7.199550   580A      7.203916  
     581A      7.231080   582A      7.244142   583A      7.253604  
     584A      7.267622   585A      7.289237   586A      7.314959  
     587A      7.323910   588A      7.328190   589A      7.349303  
     590A      7.374537   591A      7.378363   592A      7.415460  
     593A      7.416375   594A      7.422063   595A      7.445709  
     596A      7.457909   597A      7.473820   598A      7.499195  
     599A      7.512560   600A      7.521428   601A      7.531833  
     602A      7.550313   603A      7.552122   604A      7.569943  
     605A      7.596761   606A      7.604434   607A      7.610673  
     608A      7.633556   609A      7.638960   610A      7.649719  
     611A      7.664498   612A      7.694417   613A      7.702762  
     614A      7.715753   615A      7.724919   616A      7.732012  
     617A      7.742552   618A      7.752908   619A      7.762386  
     620A      7.772412   621A      7.772992   622A      7.792394  
     623A      7.806068   624A      7.825486   625A      7.838247  
     626A      7.848986   627A      7.853150   628A      7.857174  
     629A      7.861622   630A      7.869639   631A      7.895071  
     632A      7.903072   633A      7.906778   634A      7.919479  
     635A      7.935126   636A      7.940549   637A      7.951453  
     638A      7.965097   639A      7.967887   640A      8.002502  
     641A      8.005172   642A      8.015282   643A      8.027737  
     644A      8.046789   645A      8.055903   646A      8.063218  
     647A      8.071868   648A      8.082698   649A      8.105025  
     650A      8.108066   651A      8.111820   652A      8.125882  
     653A      8.145839   654A      8.155395   655A      8.165845  
     656A      8.177267   657A      8.184154   658A      8.195984  
     659A      8.219176   660A      8.228767   661A      8.247668  
     662A      8.250088   663A      8.265635   664A      8.284702  
     665A      8.292936   666A      8.314482   667A      8.321566  
     668A      8.339448   669A      8.359854   670A      8.377827  
     671A      8.387946   672A      8.397871   673A      8.425250  
     674A      8.438910   675A      8.465849   676A      8.488446  
     677A      8.500304   678A      8.500412   679A      8.512086  
     680A      8.523894   681A      8.529187   682A      8.541374  
     683A      8.561619   684A      8.564115   685A      8.587376  
     686A      8.587515   687A      8.592359   688A      8.606851  
     689A      8.609364   690A      8.613017   691A      8.619872  
     692A      8.640993   693A      8.659017   694A      8.660434  
     695A      8.671264   696A      8.674993   697A      8.692746  
     698A      8.695827   699A      8.704053   700A      8.714353  
     701A      8.731626   702A      8.744118   703A      8.755440  
     704A      8.759604   705A      8.773089   706A      8.796355  
     707A      8.799600   708A      8.812481   709A      8.827199  
     710A      8.858286   711A      8.860854   712A      8.864866  
     713A      8.876222   714A      8.881803   715A      8.900758  
     716A      8.974979   717A      8.981434   718A      8.982554  
     719A      8.999974   720A      9.018941   721A      9.034182  
     722A      9.072102   723A      9.078655   724A      9.078877  
     725A      9.102294   726A      9.120445   727A      9.125244  
     728A      9.162160   729A      9.170060   730A      9.210366  
     731A      9.212579   732A      9.231374   733A      9.235168  
     734A      9.243439   735A      9.301164   736A      9.317956  
     737A      9.323728   738A      9.336298   739A      9.346302  
     740A      9.395706   741A      9.409035   742A      9.452703  
     743A      9.470182   744A      9.541827   745A      9.622310  
     746A      9.668121   747A      9.679665   748A      9.698663  
     749A      9.708653   750A      9.726058   751A      9.731774  
     752A      9.751928   753A      9.789093   754A      9.816303  
     755A      9.827195   756A      9.862263   757A      9.874666  
     758A      9.882832   759A      9.914150   760A      9.937231  
     761A      9.968102   762A      9.987845   763A     10.015532  
     764A     10.031053   765A     10.034940   766A     10.066734  
     767A     10.083133   768A     10.112722   769A     10.128618  
     770A     10.135374   771A     10.167313   772A     10.180082  
     773A     10.188141   774A     10.224306   775A     10.253193  
     776A     10.261690   777A     10.263538   778A     10.282949  
     779A     10.299040   780A     10.316018   781A     10.328379  
     782A     10.361142   783A     10.379061   784A     10.462421  
     785A     10.464044   786A     10.486839   787A     10.563780  
     788A     10.632189   789A     10.691880   790A     10.725444  
     791A     10.762020   792A     12.179073   793A     12.315770  
     794A     12.433140   795A     12.521249   796A     12.522048  
     797A     12.570105   798A     12.610933   799A     13.098359  
     800A     13.172180   801A     13.201077   802A     13.203467  
     803A     13.219559   804A     13.271343   805A     13.365835  
     806A     29.075645   807A     29.144803   808A     29.177814  
     809A     29.201455   810A     29.222857   811A     29.272525  
     812A     29.290811   813A    148.317203   814A    148.378229  
     815A    148.405479   816A    148.462235   817A    148.487636  
     818A    148.509583   819A    148.595898  

    Final Occupation by Irrep:
              A 
    DOCC [    28 ]

  @DF-RKS Final Energy:  -274.96377925333155

   => Energetics <=

    Nuclear Repulsion Energy =            333.8866101250079055
    One-Electron Energy =               -1030.8844499140936932
    Two-Electron Energy =                 454.6915535726912481
    DFT Exchange-Correlation Energy =     -32.6574930369370620
    Empirical Dispersion Energy =           0.0000000000000000
    VV10 Nonlocal Energy =                  0.0000000000000000
    Total Energy =                       -274.9637792533316087

Computation Completed


Properties will be evaluated at   0.000000,   0.000000,   0.000000 [a0]

Properties computed using the SCF density matrix

  Nuclear Dipole Moment: [e a0]
     X:    -0.7220      Y:     0.0001      Z:     0.8913

  Electronic Dipole Moment: [e a0]
     X:     0.7256      Y:    -0.0001      Z:    -0.9193

  Dipole Moment: [e a0]
     X:     0.0036      Y:    -0.0000      Z:    -0.0280     Total:     0.0282

  Dipole Moment: [D]
     X:     0.0091      Y:    -0.0000      Z:    -0.0711     Total:     0.0717


*** tstop() called on lenovo at Tue Jan 18 21:50:00 2022
Module time:
	user time   =     525.58 seconds =       8.76 minutes
	system time =      13.63 seconds =       0.23 minutes
	total time  =        155 seconds =       2.58 minutes
Total time:
	user time   =     525.58 seconds =       8.76 minutes
	system time =      13.63 seconds =       0.23 minutes
	total time  =        155 seconds =       2.58 minutes

    Psi4 stopped on: Tuesday, 18 January 2022 09:50PM
    Psi4 wall time for execution: 0:02:34.82

*** Psi4 exiting successfully. Buy a developer a beer!
