
    -----------------------------------------------------------------------
          Psi4: An Open-Source Ab Initio Electronic Structure Package
                               Psi4 1.3.2 release

                         Git: Rev {} zzzzzzz 


    R. M. Parrish, L. A. Burns, D. G. A. Smith, A. C. Simmonett,
    A. E. DePrince III, E. G. Hohenstein, U. Bozkaya, A. Yu. Sokolov,
    R. Di Remigio, R. M. Richard, J. F. Gonthier, A. M. James,
    H. R. McAlexander, A. Kumar, M. Saitow, X. Wang, B. P. Pritchard,
    P. Verma, H. F. Schaefer III, K. Patkowski, R. A. King, E. F. Valeev,
    F. A. Evangelista, J. M. Turney, T. D. Crawford, and C. D. Sherrill,
    J. Chem. Theory Comput. 13(7) pp 3185--3197 (2017).
    (doi: 10.1021/acs.jctc.7b00174)


                         Additional Contributions by
    P. Kraus, H. Kruse, M. H. Lechner, M. C. Schieber, R. A. Shaw,
    A. Alenaizan, R. Galvelis, Z. L. Glick, S. Lehtola, and J. P. Misiewicz

    -----------------------------------------------------------------------


    Psi4 started on: Tuesday, 18 January 2022 09:41PM

    Process ID: 830049
    Host:       lenovo
    PSIDATADIR: /usr/share/psi4
    Memory:     500.0 MiB
    Threads:    4
    
  ==> Input File <==

--------------------------------------------------------------------------
# PBE0/def2-SVP calculation on methylcyclohexane conformer #0 

memory 4 gb

molecule {
	    C    -1.0234356357   0.0009048418  -0.3189640376
	    C    -0.3016504725   1.2512069300   0.1757156585
	    C    -0.3016293164  -1.2521964662   0.1685496331
	    C     1.1717605538   1.2570219103  -0.2095145670
	    C     1.1717796282  -1.2557818385  -0.2167126630
	    C     1.8783991150  -0.0007805740   0.2777509362
	    C    -2.4864502525  -0.0002846353   0.0918916097
	    H    -0.9756062537   0.0040494411  -1.4178843959
	    H    -0.3909771196   1.2976695284   1.2698371636
	    H    -0.8000195352   2.1459422893  -0.2124975600
	    H    -0.7999860573  -2.1447040821  -0.2247743989
	    H    -0.3909497910  -1.3049194616   1.2623874470
	    H     1.6635761103   2.1492366019   0.1899652737
	    H     1.2582143370   1.3180165921  -1.3018482314
	    H     1.2582324259  -1.3105151818  -1.3093780496
	    H     1.6636102707  -2.1502630113   0.1776474424
	    H     2.9238751679   0.0001527081  -0.0454293388
	    H     1.8914724966  -0.0039238763   1.3751915645
	    H    -2.5825736891  -0.0033347400   1.1823848264
	    H    -3.0070318959   0.8846786747  -0.2840863566
	    H    -3.0069853235  -0.8831590982  -0.2890289433
}

set basis def2-SVP
energy('pbe0')
--------------------------------------------------------------------------

  Memory set to   3.725 GiB by Python driver.

*** tstart() called on lenovo
*** at Tue Jan 18 21:41:10 2022

   => Loading Basis Set <=

    Name: DEF2-SVP
    Role: ORBITAL
    Keyword: BASIS
    atoms 1-7  entry C          line    90 file /usr/share/psi4/basis/def2-svp.gbs 
    atoms 8-21 entry H          line    15 file /usr/share/psi4/basis/def2-svp.gbs 


         ---------------------------------------------------------
                                   SCF
               by Justin Turney, Rob Parrish, Andy Simmonett
                          and Daniel G. A. Smith
                              RKS Reference
                        4 Threads,   3814 MiB Core
         ---------------------------------------------------------

  ==> Geometry <==

    Molecular point group: c1
    Full point group: C1

    Geometry (in Angstrom), charge = 0, multiplicity = 1:

       Center              X                  Y                   Z               Mass       
    ------------   -----------------  -----------------  -----------------  -----------------
         C           -1.023435635704     0.000904841796    -0.318964037603    12.000000000000
         C           -0.301650472504     1.251206929996     0.175715658497    12.000000000000
         C           -0.301629316404    -1.252196466204     0.168549633097    12.000000000000
         C            1.171760553796     1.257021910296    -0.209514567003    12.000000000000
         C            1.171779628196    -1.255781838504    -0.216712663003    12.000000000000
         C            1.878399114996    -0.000780574004     0.277750936197    12.000000000000
         C           -2.486450252504    -0.000284635304     0.091891609697    12.000000000000
         H           -0.975606253704     0.004049441096    -1.417884395903     1.007825032230
         H           -0.390977119604     1.297669528396     1.269837163597     1.007825032230
         H           -0.800019535204     2.145942289296    -0.212497560003     1.007825032230
         H           -0.799986057304    -2.144704082104    -0.224774398903     1.007825032230
         H           -0.390949791004    -1.304919461604     1.262387446997     1.007825032230
         H            1.663576110296     2.149236601896     0.189965273697     1.007825032230
         H            1.258214336996     1.318016592096    -1.301848231403     1.007825032230
         H            1.258232425896    -1.310515181804    -1.309378049603     1.007825032230
         H            1.663610270696    -2.150263011304     0.177647442397     1.007825032230
         H            2.923875167896     0.000152708096    -0.045429338803     1.007825032230
         H            1.891472496596    -0.003923876304     1.375191564497     1.007825032230
         H           -2.582573689104    -0.003334740004     1.182384826397     1.007825032230
         H           -3.007031895904     0.884678674696    -0.284086356603     1.007825032230
         H           -3.006985323504    -0.883159098204    -0.289028943303     1.007825032230

  Running in c1 symmetry.

  Rotational constants: A =      0.14174  B =      0.07358  C =      0.05347 [cm^-1]
  Rotational constants: A =   4249.11816  B =   2205.72964  C =   1602.93611 [MHz]
  Nuclear repulsion =  329.947361773398939

  Charge       = 0
  Multiplicity = 1
  Electrons    = 56
  Nalpha       = 28
  Nbeta        = 28

  ==> Algorithm <==

  SCF Algorithm Type is DF.
  DIIS enabled.
  MOM disabled.
  Fractional occupation disabled.
  Guess Type is SAD.
  Energy threshold   = 1.00e-06
  Density threshold  = 1.00e-06
  Integral threshold = 0.00e+00

  ==> Primary Basis <==

  Basis Set: DEF2-SVP
    Blend: DEF2-SVP
    Number of shells: 84
    Number of basis function: 168
    Number of Cartesian functions: 175
    Spherical Harmonics?: true
    Max angular momentum: 2

  ==> DFT Potential <==

   => Composite Functional: PBE0 <= 

    PBE0 Hyb-GGA Exchange-Correlation Functional

    C. Adamo and V. Barone, J. Chem. Phys. 110, 6158 (1999)
    M. Ernzerhof and G. E. Scuseria, J. Chem. Phys. 110, 5029 (1999)

    Deriv               =              1
    GGA                 =           TRUE
    Meta                =          FALSE

    Exchange Hybrid     =           TRUE
    MP2 Hybrid          =          FALSE

   => Exchange Functionals <=

    0.7500   Perdew, Burke & Ernzerhof

   => Exact (HF) Exchange <=

    0.2500               HF 

   => Correlation Functionals <=

    1.0000   Perdew, Burke & Ernzerhof

   => Molecular Quadrature <=

    Radial Scheme          =       TREUTLER
    Pruning Scheme         =           FLAT
    Nuclear Scheme         =       TREUTLER

    BS radius alpha        =              1
    Pruning alpha          =              1
    Radial Points          =             75
    Spherical Points       =            302
    Total Points           =         469453
    Total Blocks           =           3452
    Max Points             =            256
    Max Functions          =            167

   => Loading Basis Set <=

    Name: (DEF2-SVP AUX)
    Role: JKFIT
    Keyword: DF_BASIS_SCF
    atoms 1-7  entry C          line   203 file /usr/share/psi4/basis/def2-svp-jkfit.gbs 
    atoms 8-21 entry H          line    23 file /usr/share/psi4/basis/def2-svp-jkfit.gbs 

  ==> Pre-Iterations <==

   -------------------------------------------------------
    Irrep   Nso     Nmo     Nalpha   Nbeta   Ndocc  Nsocc
   -------------------------------------------------------
     A        168     168       0       0       0       0
   -------------------------------------------------------
    Total     168     168      28      28      28       0
   -------------------------------------------------------

  ==> Integral Setup <==

  DFHelper Memory: AOs need 0.169 GiB; user supplied 1.142 GiB. Using in-core AOs.

  ==> MemDFJK: Density-Fitted J/K Matrices <==

    J tasked:                   Yes
    K tasked:                   Yes
    wK tasked:                   No
    OpenMP threads:               4
    Memory [MiB]:              1169
    Algorithm:                 Core
    Schwarz Cutoff:           1E-12
    Mask sparsity (%):       3.0896
    Fitting Condition:        1E-10

   => Auxiliary Basis Set <=

  Basis Set: (DEF2-SVP AUX)
    Blend: DEF2-SVP-JKFIT
    Number of shells: 259
    Number of basis function: 777
    Number of Cartesian functions: 903
    Spherical Harmonics?: true
    Max angular momentum: 4

  Cached 100.0% of DFT collocation blocks in 1.652 [GiB].

  Minimum eigenvalue in the overlap matrix is 1.3491647663E-03.
  Using Symmetric Orthogonalization.

  SCF Guess: Superposition of Atomic Densities via on-the-fly atomic UHF.

  ==> Iterations <==

                           Total Energy        Delta E     RMS |[F,P]|

   @DF-RKS iter SAD:  -274.34661401598328   -2.74347e+02   0.00000e+00 
   @DF-RKS iter   1:  -274.07832884864331    2.68285e-01   6.03434e-03 DIIS
   @DF-RKS iter   2:  -273.76375705812114    3.14572e-01   7.62329e-03 DIIS
   @DF-RKS iter   3:  -274.65645189354797   -8.92695e-01   6.43773e-04 DIIS
   @DF-RKS iter   4:  -274.66111827146403   -4.66638e-03   2.56273e-04 DIIS
   @DF-RKS iter   5:  -274.66198220476207   -8.63933e-04   5.72118e-05 DIIS
   @DF-RKS iter   6:  -274.66202758057824   -4.53758e-05   6.59626e-06 DIIS
   @DF-RKS iter   7:  -274.66202813243910   -5.51861e-07   2.96482e-06 DIIS
   @DF-RKS iter   8:  -274.66202825303259   -1.20593e-07   4.87268e-07 DIIS
  Energy and wave function converged.


  ==> Post-Iterations <==

    Orbital Energies [Eh]
    ---------------------

    Doubly Occupied:                                                      

       1A    -10.226262     2A    -10.220389     3A    -10.220367  
       4A    -10.220174     5A    -10.219057     6A    -10.219038  
       7A    -10.215961     8A     -0.854223     9A     -0.779033  
      10A     -0.753718    11A     -0.685188    12A     -0.618229  
      13A     -0.593041    14A     -0.560494    15A     -0.487379  
      16A     -0.459537    17A     -0.450266    18A     -0.444229  
      19A     -0.423704    20A     -0.393254    21A     -0.386459  
      22A     -0.376171    23A     -0.360102    24A     -0.346704  
      25A     -0.336853    26A     -0.319397    27A     -0.306888  
      28A     -0.302175  

    Virtual:                                                              

      29A      0.066116    30A      0.082267    31A      0.088736  
      32A      0.102369    33A      0.135123    34A      0.142064  
      35A      0.143077    36A      0.147990    37A      0.161534  
      38A      0.161837    39A      0.164031    40A      0.172942  
      41A      0.184536    42A      0.187479    43A      0.214230  
      44A      0.249946    45A      0.250850    46A      0.268804  
      47A      0.269207    48A      0.280269    49A      0.287165  
      50A      0.430912    51A      0.432706    52A      0.438825  
      53A      0.448828    54A      0.453045    55A      0.468028  
      56A      0.476108    57A      0.557142    58A      0.591734  
      59A      0.627708    60A      0.638131    61A      0.645653  
      62A      0.660805    63A      0.662602    64A      0.664729  
      65A      0.670390    66A      0.686421    67A      0.688877  
      68A      0.690782    69A      0.698760    70A      0.698892  
      71A      0.706723    72A      0.719883    73A      0.726688  
      74A      0.727730    75A      0.739229    76A      0.742590  
      77A      0.744787    78A      0.748041    79A      0.752980  
      80A      0.758290    81A      0.766799    82A      0.795691  
      83A      0.856131    84A      0.915957    85A      0.965979  
      86A      1.065416    87A      1.090771    88A      1.131169  
      89A      1.138064    90A      1.140350    91A      1.163239  
      92A      1.238961    93A      1.284797    94A      1.285094  
      95A      1.314995    96A      1.328717    97A      1.372000  
      98A      1.404242    99A      1.500587   100A      1.515527  
     101A      1.557001   102A      1.617111   103A      1.657739  
     104A      1.685532   105A      1.743306   106A      1.762720  
     107A      1.768467   108A      1.771291   109A      1.774699  
     110A      1.785385   111A      1.806764   112A      1.809287  
     113A      1.828471   114A      1.836772   115A      1.845596  
     116A      1.866664   117A      1.873761   118A      1.877445  
     119A      1.899555   120A      1.900735   121A      1.907030  
     122A      1.916443   123A      1.923947   124A      1.941905  
     125A      1.958741   126A      1.973197   127A      2.012625  
     128A      2.012789   129A      2.030374   130A      2.055192  
     131A      2.070905   132A      2.116513   133A      2.117231  
     134A      2.153956   135A      2.233998   136A      2.248686  
     137A      2.283051   138A      2.305771   139A      2.331203  
     140A      2.373580   141A      2.455218   142A      2.460130  
     143A      2.474578   144A      2.484604   145A      2.504970  
     146A      2.506554   147A      2.569001   148A      2.589244  
     149A      2.589576   150A      2.654450   151A      2.669161  
     152A      2.693129   153A      2.693782   154A      2.750646  
     155A      2.868107   156A      2.896560   157A      2.905655  
     158A      2.933072   159A      2.943427   160A      2.952184  
     161A      2.976428   162A      3.022913   163A      3.064663  
     164A      3.070200   165A      3.088537   166A      3.138877  
     167A      3.153244   168A      3.205618  

    Final Occupation by Irrep:
              A 
    DOCC [    28 ]

  @DF-RKS Final Energy:  -274.66202825303259

   => Energetics <=

    Nuclear Repulsion Energy =            329.9473617733989386
    One-Electron Energy =               -1022.3801356193832817
    Two-Electron Energy =                 450.3707954344180848
    DFT Exchange-Correlation Energy =     -32.6000498414663724
    Empirical Dispersion Energy =           0.0000000000000000
    VV10 Nonlocal Energy =                  0.0000000000000000
    Total Energy =                       -274.6620282530326449

Computation Completed


Properties will be evaluated at   0.000000,   0.000000,   0.000000 [a0]

Properties computed using the SCF density matrix

  Nuclear Dipole Moment: [e a0]
     X:    -1.2142      Y:    -0.0010      Z:     0.3492

  Electronic Dipole Moment: [e a0]
     X:     1.2319      Y:     0.0011      Z:    -0.3716

  Dipole Moment: [e a0]
     X:     0.0177      Y:     0.0001      Z:    -0.0224     Total:     0.0285

  Dipole Moment: [D]
     X:     0.0451      Y:     0.0002      Z:    -0.0568     Total:     0.0726


*** tstop() called on lenovo at Tue Jan 18 21:41:23 2022
Module time:
	user time   =      38.83 seconds =       0.65 minutes
	system time =       0.92 seconds =       0.02 minutes
	total time  =         13 seconds =       0.22 minutes
Total time:
	user time   =      38.83 seconds =       0.65 minutes
	system time =       0.92 seconds =       0.02 minutes
	total time  =         13 seconds =       0.22 minutes

    Psi4 stopped on: Tuesday, 18 January 2022 09:41PM
    Psi4 wall time for execution: 0:00:12.99

*** Psi4 exiting successfully. Buy a developer a beer!
