
    -----------------------------------------------------------------------
          Psi4: An Open-Source Ab Initio Electronic Structure Package
                               Psi4 1.3.2 release

                         Git: Rev {} zzzzzzz 


    R. M. Parrish, L. A. Burns, D. G. A. Smith, A. C. Simmonett,
    A. E. DePrince III, E. G. Hohenstein, U. Bozkaya, A. Yu. Sokolov,
    R. Di Remigio, R. M. Richard, J. F. Gonthier, A. M. James,
    H. R. McAlexander, A. Kumar, M. Saitow, X. Wang, B. P. Pritchard,
    P. Verma, H. F. Schaefer III, K. Patkowski, R. A. King, E. F. Valeev,
    F. A. Evangelista, J. M. Turney, T. D. Crawford, and C. D. Sherrill,
    J. Chem. Theory Comput. 13(7) pp 3185--3197 (2017).
    (doi: 10.1021/acs.jctc.7b00174)


                         Additional Contributions by
    P. Kraus, H. Kruse, M. H. Lechner, M. C. Schieber, R. A. Shaw,
    A. Alenaizan, R. Galvelis, Z. L. Glick, S. Lehtola, and J. P. Misiewicz

    -----------------------------------------------------------------------


    Psi4 started on: Tuesday, 18 January 2022 09:41PM

    Process ID: 831570
    Host:       lenovo
    PSIDATADIR: /usr/share/psi4
    Memory:     500.0 MiB
    Threads:    4
    
  ==> Input File <==

--------------------------------------------------------------------------
# PBE0/def2-SVP calculation on methylcyclohexane conformer #3 

memory 4 gb

molecule {
	    C    -1.0847725685   0.0976610825  -0.4269486177
	    C    -0.2698286331   1.2632156387   0.1518459996
	    C    -0.2064731988  -1.1590011569  -0.5835254873
	    C     1.1768592218   1.2148149812  -0.3150011265
	    C     0.9073632537  -1.1919128461   0.4526424034
	    C     1.8846981078  -0.0300906667   0.2374596405
	    C    -2.3170183281  -0.1754578965   0.4224861901
	    H    -1.4252224679   0.3936204591  -1.4264545578
	    H    -0.2943853849   1.2160561614   1.2480726357
	    H    -0.7398522975   2.2129762511  -0.1197664510
	    H     0.2423860527  -1.1790207230  -1.5827271443
	    H    -0.8297626199  -2.0557369873  -0.5127267397
	    H     1.7137734802   2.1193450789  -0.0171833746
	    H     1.1926687761   1.1999861347  -1.4106391729
	    H     1.4401448988  -2.1460138025   0.4197189705
	    H     0.4667241381  -1.1283670621   1.4537331255
	    H     2.6787063228  -0.3355753250  -0.4508708907
	    H     2.3775904019   0.2113515366   1.1842119500
	    H    -2.9090967022   0.7328018070   0.5666285472
	    H    -2.9622182726  -0.9275147374  -0.0392110358
	    H    -2.0329280334  -0.5428668226   1.4140188414
}

set basis def2-SVP
energy('pbe0')
--------------------------------------------------------------------------

  Memory set to   3.725 GiB by Python driver.

*** tstart() called on lenovo
*** at Tue Jan 18 21:41:56 2022

   => Loading Basis Set <=

    Name: DEF2-SVP
    Role: ORBITAL
    Keyword: BASIS
    atoms 1-7  entry C          line    90 file /usr/share/psi4/basis/def2-svp.gbs 
    atoms 8-21 entry H          line    15 file /usr/share/psi4/basis/def2-svp.gbs 


         ---------------------------------------------------------
                                   SCF
               by Justin Turney, Rob Parrish, Andy Simmonett
                          and Daniel G. A. Smith
                              RKS Reference
                        4 Threads,   3814 MiB Core
         ---------------------------------------------------------

  ==> Geometry <==

    Molecular point group: c1
    Full point group: C1

    Geometry (in Angstrom), charge = 0, multiplicity = 1:

       Center              X                  Y                   Z               Mass       
    ------------   -----------------  -----------------  -----------------  -----------------
         C           -1.084772568488     0.097661082507    -0.426948617689    12.000000000000
         C           -0.269828633088     1.263215638707     0.151845999611    12.000000000000
         C           -0.206473198788    -1.159001156893    -0.583525487289    12.000000000000
         C            1.176859221812     1.214814981207    -0.315001126489    12.000000000000
         C            0.907363253712    -1.191912846093     0.452642403411    12.000000000000
         C            1.884698107812    -0.030090666693     0.237459640511    12.000000000000
         C           -2.317018328088    -0.175457896493     0.422486190111    12.000000000000
         H           -1.425222467888     0.393620459107    -1.426454557789     1.007825032230
         H           -0.294385384888     1.216056161407     1.248072635711     1.007825032230
         H           -0.739852297488     2.212976251107    -0.119766450989     1.007825032230
         H            0.242386052712    -1.179020722993    -1.582727144289     1.007825032230
         H           -0.829762619888    -2.055736987293    -0.512726739689     1.007825032230
         H            1.713773480212     2.119345078907    -0.017183374589     1.007825032230
         H            1.192668776112     1.199986134707    -1.410639172889     1.007825032230
         H            1.440144898812    -2.146013802493     0.419718970511     1.007825032230
         H            0.466724138112    -1.128367062093     1.453733125511     1.007825032230
         H            2.678706322812    -0.335575324993    -0.450870890689     1.007825032230
         H            2.377590401912     0.211351536607     1.184211950011     1.007825032230
         H           -2.909096702188     0.732801807007     0.566628547211     1.007825032230
         H           -2.962218272588    -0.927514737393    -0.039211035789     1.007825032230
         H           -2.032928033388    -0.542866822593     1.414018841411     1.007825032230

  Running in c1 symmetry.

  Rotational constants: A =      0.13633  B =      0.07598  C =      0.05807 [cm^-1]
  Rotational constants: A =   4086.98332  B =   2277.95767  C =   1740.89289 [MHz]
  Nuclear repulsion =  331.726266423276911

  Charge       = 0
  Multiplicity = 1
  Electrons    = 56
  Nalpha       = 28
  Nbeta        = 28

  ==> Algorithm <==

  SCF Algorithm Type is DF.
  DIIS enabled.
  MOM disabled.
  Fractional occupation disabled.
  Guess Type is SAD.
  Energy threshold   = 1.00e-06
  Density threshold  = 1.00e-06
  Integral threshold = 0.00e+00

  ==> Primary Basis <==

  Basis Set: DEF2-SVP
    Blend: DEF2-SVP
    Number of shells: 84
    Number of basis function: 168
    Number of Cartesian functions: 175
    Spherical Harmonics?: true
    Max angular momentum: 2

  ==> DFT Potential <==

   => Composite Functional: PBE0 <= 

    PBE0 Hyb-GGA Exchange-Correlation Functional

    C. Adamo and V. Barone, J. Chem. Phys. 110, 6158 (1999)
    M. Ernzerhof and G. E. Scuseria, J. Chem. Phys. 110, 5029 (1999)

    Deriv               =              1
    GGA                 =           TRUE
    Meta                =          FALSE

    Exchange Hybrid     =           TRUE
    MP2 Hybrid          =          FALSE

   => Exchange Functionals <=

    0.7500   Perdew, Burke & Ernzerhof

   => Exact (HF) Exchange <=

    0.2500               HF 

   => Correlation Functionals <=

    1.0000   Perdew, Burke & Ernzerhof

   => Molecular Quadrature <=

    Radial Scheme          =       TREUTLER
    Pruning Scheme         =           FLAT
    Nuclear Scheme         =       TREUTLER

    BS radius alpha        =              1
    Pruning alpha          =              1
    Radial Points          =             75
    Spherical Points       =            302
    Total Points           =         469440
    Total Blocks           =           3437
    Max Points             =            256
    Max Functions          =            167

   => Loading Basis Set <=

    Name: (DEF2-SVP AUX)
    Role: JKFIT
    Keyword: DF_BASIS_SCF
    atoms 1-7  entry C          line   203 file /usr/share/psi4/basis/def2-svp-jkfit.gbs 
    atoms 8-21 entry H          line    23 file /usr/share/psi4/basis/def2-svp-jkfit.gbs 

  ==> Pre-Iterations <==

   -------------------------------------------------------
    Irrep   Nso     Nmo     Nalpha   Nbeta   Ndocc  Nsocc
   -------------------------------------------------------
     A        168     168       0       0       0       0
   -------------------------------------------------------
    Total     168     168      28      28      28       0
   -------------------------------------------------------

  ==> Integral Setup <==

  DFHelper Memory: AOs need 0.170 GiB; user supplied 1.121 GiB. Using in-core AOs.

  ==> MemDFJK: Density-Fitted J/K Matrices <==

    J tasked:                   Yes
    K tasked:                   Yes
    wK tasked:                   No
    OpenMP threads:               4
    Memory [MiB]:              1148
    Algorithm:                 Core
    Schwarz Cutoff:           1E-12
    Mask sparsity (%):       2.4943
    Fitting Condition:        1E-10

   => Auxiliary Basis Set <=

  Basis Set: (DEF2-SVP AUX)
    Blend: DEF2-SVP-JKFIT
    Number of shells: 259
    Number of basis function: 777
    Number of Cartesian functions: 903
    Spherical Harmonics?: true
    Max angular momentum: 4

  Cached 100.0% of DFT collocation blocks in 1.673 [GiB].

  Minimum eigenvalue in the overlap matrix is 6.4536476326E-04.
  Using Symmetric Orthogonalization.

  SCF Guess: Superposition of Atomic Densities via on-the-fly atomic UHF.

  ==> Iterations <==

                           Total Energy        Delta E     RMS |[F,P]|

   @DF-RKS iter SAD:  -274.32125552444779   -2.74321e+02   0.00000e+00 
   @DF-RKS iter   1:  -274.07322203944858    2.48033e-01   6.01589e-03 DIIS
   @DF-RKS iter   2:  -273.74321166519655    3.30010e-01   7.69086e-03 DIIS
   @DF-RKS iter   3:  -274.64537613450852   -9.02164e-01   6.42391e-04 DIIS
   @DF-RKS iter   4:  -274.65006170140663   -4.68557e-03   2.40054e-04 DIIS
   @DF-RKS iter   5:  -274.65080870404603   -7.47003e-04   6.22584e-05 DIIS
   @DF-RKS iter   6:  -274.65086213271314   -5.34287e-05   7.56778e-06 DIIS
   @DF-RKS iter   7:  -274.65086291617007   -7.83457e-07   2.85752e-06 DIIS
   @DF-RKS iter   8:  -274.65086303286989   -1.16700e-07   5.76093e-07 DIIS
  Energy and wave function converged.


  ==> Post-Iterations <==

    Orbital Energies [Eh]
    ---------------------

    Doubly Occupied:                                                      

       1A    -10.226878     2A    -10.220118     3A    -10.220052  
       4A    -10.219960     5A    -10.218818     6A    -10.218745  
       7A    -10.215897     8A     -0.853302     9A     -0.774940  
      10A     -0.750408    11A     -0.684377    12A     -0.627683  
      13A     -0.594981    14A     -0.528426    15A     -0.501290  
      16A     -0.487235    17A     -0.449751    18A     -0.424637  
      19A     -0.408960    20A     -0.398693    21A     -0.383299  
      22A     -0.368761    23A     -0.363858    24A     -0.356829  
      25A     -0.343815    26A     -0.306704    27A     -0.303731  
      28A     -0.301047  

    Virtual:                                                              

      29A      0.059677    30A      0.080286    31A      0.093761  
      32A      0.112349    33A      0.124484    34A      0.134760  
      35A      0.138361    36A      0.144583    37A      0.154635  
      38A      0.161340    39A      0.168930    40A      0.184020  
      41A      0.190703    42A      0.194826    43A      0.217472  
      44A      0.219388    45A      0.247786    46A      0.271933  
      47A      0.284735    48A      0.308053    49A      0.321410  
      50A      0.426441    51A      0.435950    52A      0.450734  
      53A      0.452591    54A      0.474917    55A      0.487806  
      56A      0.492098    57A      0.553774    58A      0.594642  
      59A      0.621894    60A      0.626560    61A      0.634354  
      62A      0.643961    63A      0.645376    64A      0.659135  
      65A      0.663354    66A      0.680627    67A      0.690147  
      68A      0.691384    69A      0.699941    70A      0.702504  
      71A      0.708090    72A      0.712968    73A      0.722713  
      74A      0.727935    75A      0.732234    76A      0.738944  
      77A      0.741906    78A      0.746284    79A      0.749627  
      80A      0.760834    81A      0.769320    82A      0.805561  
      83A      0.809392    84A      0.957735    85A      0.985656  
      86A      1.006874    87A      1.031117    88A      1.067031  
      89A      1.077776    90A      1.107599    91A      1.231737  
      92A      1.253237    93A      1.300959    94A      1.344926  
      95A      1.351984    96A      1.377354    97A      1.402668  
      98A      1.463107    99A      1.504418   100A      1.544898  
     101A      1.553776   102A      1.560993   103A      1.604127  
     104A      1.678125   105A      1.714078   106A      1.735882  
     107A      1.754351   108A      1.774797   109A      1.791303  
     110A      1.805122   111A      1.809285   112A      1.816199  
     113A      1.819853   114A      1.838617   115A      1.849673  
     116A      1.859397   117A      1.869838   118A      1.879688  
     119A      1.889759   120A      1.896554   121A      1.908312  
     122A      1.927245   123A      1.936670   124A      1.952811  
     125A      1.970399   126A      1.989429   127A      2.010693  
     128A      2.034970   129A      2.049815   130A      2.077520  
     131A      2.097489   132A      2.111692   133A      2.119319  
     134A      2.133843   135A      2.204230   136A      2.254298  
     137A      2.274374   138A      2.330953   139A      2.343807  
     140A      2.372684   141A      2.395949   142A      2.411058  
     143A      2.474195   144A      2.486516   145A      2.513644  
     146A      2.548177   147A      2.571559   148A      2.597128  
     149A      2.607868   150A      2.631251   151A      2.668450  
     152A      2.702813   153A      2.719725   154A      2.760438  
     155A      2.849227   156A      2.883610   157A      2.894913  
     158A      2.915968   159A      2.939403   160A      2.969107  
     161A      2.997854   162A      3.024152   163A      3.064844  
     164A      3.088729   165A      3.100876   166A      3.112316  
     167A      3.131165   168A      3.170086  

    Final Occupation by Irrep:
              A 
    DOCC [    28 ]

  @DF-RKS Final Energy:  -274.65086303286989

   => Energetics <=

    Nuclear Repulsion Energy =            331.7262664232769112
    One-Electron Energy =               -1025.9673173343273902
    Two-Electron Energy =                 452.1879955073080168
    DFT Exchange-Correlation Energy =     -32.5978076291274590
    Empirical Dispersion Energy =           0.0000000000000000
    VV10 Nonlocal Energy =                  0.0000000000000000
    Total Energy =                       -274.6508630328698928

Computation Completed


Properties will be evaluated at   0.000000,   0.000000,   0.000000 [a0]

Properties computed using the SCF density matrix

  Nuclear Dipole Moment: [e a0]
     X:    -1.0138      Y:    -0.2146      Z:     0.6814

  Electronic Dipole Moment: [e a0]
     X:     1.0252      Y:     0.2237      Z:    -0.7060

  Dipole Moment: [e a0]
     X:     0.0114      Y:     0.0091      Z:    -0.0246     Total:     0.0286

  Dipole Moment: [D]
     X:     0.0289      Y:     0.0230      Z:    -0.0625     Total:     0.0726


*** tstop() called on lenovo at Tue Jan 18 21:42:11 2022
Module time:
	user time   =      45.32 seconds =       0.76 minutes
	system time =       1.17 seconds =       0.02 minutes
	total time  =         15 seconds =       0.25 minutes
Total time:
	user time   =      45.32 seconds =       0.76 minutes
	system time =       1.17 seconds =       0.02 minutes
	total time  =         15 seconds =       0.25 minutes

    Psi4 stopped on: Tuesday, 18 January 2022 09:42PM
    Psi4 wall time for execution: 0:00:15.25

*** Psi4 exiting successfully. Buy a developer a beer!
