
    -----------------------------------------------------------------------
          Psi4: An Open-Source Ab Initio Electronic Structure Package
                               Psi4 1.3.2 release

                         Git: Rev {} zzzzzzz 


    R. M. Parrish, L. A. Burns, D. G. A. Smith, A. C. Simmonett,
    A. E. DePrince III, E. G. Hohenstein, U. Bozkaya, A. Yu. Sokolov,
    R. Di Remigio, R. M. Richard, J. F. Gonthier, A. M. James,
    H. R. McAlexander, A. Kumar, M. Saitow, X. Wang, B. P. Pritchard,
    P. Verma, H. F. Schaefer III, K. Patkowski, R. A. King, E. F. Valeev,
    F. A. Evangelista, J. M. Turney, T. D. Crawford, and C. D. Sherrill,
    J. Chem. Theory Comput. 13(7) pp 3185--3197 (2017).
    (doi: 10.1021/acs.jctc.7b00174)


                         Additional Contributions by
    P. Kraus, H. Kruse, M. H. Lechner, M. C. Schieber, R. A. Shaw,
    A. Alenaizan, R. Galvelis, Z. L. Glick, S. Lehtola, and J. P. Misiewicz

    -----------------------------------------------------------------------


    Psi4 started on: Tuesday, 18 January 2022 09:59PM

    Process ID: 845273
    Host:       lenovo
    PSIDATADIR: /usr/share/psi4
    Memory:     500.0 MiB
    Threads:    4
    
  ==> Input File <==

--------------------------------------------------------------------------
# PBE0/def2-SV(P) calculation on methylcyclohexane conformer #2 

memory 4 gb

molecule {
	    C    -0.9722110106  -0.0327178145  -0.3317394209
	    C    -0.3230575991   1.3051763356   0.0549465016
	    C    -0.2799358137  -1.1703549653   0.4084020749
	    C     1.1707491624   1.1735533229   0.3780596124
	    C     1.1865243780  -1.3080141347  -0.0202102127
	    C     1.8009202197   0.0403620054  -0.4174616034
	    C    -2.4717798740  -0.0105506963  -0.0908392374
	    H    -0.8087844643  -0.1950236872  -1.4056295336
	    H    -0.8495212096   1.7199328933   0.9221690658
	    H    -0.4695454065   2.0218373804  -0.7599221104
	    H    -0.8113728409  -2.1127804385   0.2447639560
	    H    -0.3428586988  -0.9712230168   1.4854308307
	    H     1.3043952140   0.9702107563   1.4465484474
	    H     1.6840387395   2.1191808048   0.1839931571
	    H     1.2636624230  -2.0050932080  -0.8602184482
	    H     1.7632973914  -1.7516361470   0.7971908469
	    H     1.6407454705   0.2251060645  -1.4855926815
	    H     2.8844283912   0.0183001103  -0.2730171679
	    H    -2.6900359915   0.0903337794   0.9772603697
	    H    -2.9448589677   0.8307839411  -0.6052679767
	    H    -2.9477420718  -0.9296150780  -0.4433568897
}

set basis def2-SV(P)
energy('pbe0')
--------------------------------------------------------------------------

  Memory set to   3.725 GiB by Python driver.

*** tstart() called on lenovo
*** at Tue Jan 18 21:59:44 2022

   => Loading Basis Set <=

    Name: DEF2-SV(P)
    Role: ORBITAL
    Keyword: BASIS
    atoms 1-7  entry C          line    88 file /usr/share/psi4/basis/def2-sv_p_.gbs 
    atoms 8-21 entry H          line    15 file /usr/share/psi4/basis/def2-sv_p_.gbs 


         ---------------------------------------------------------
                                   SCF
               by Justin Turney, Rob Parrish, Andy Simmonett
                          and Daniel G. A. Smith
                              RKS Reference
                        4 Threads,   3814 MiB Core
         ---------------------------------------------------------

  ==> Geometry <==

    Molecular point group: c1
    Full point group: C1

    Geometry (in Angstrom), charge = 0, multiplicity = 1:

       Center              X                  Y                   Z               Mass       
    ------------   -----------------  -----------------  -----------------  -----------------
         C           -0.972211010586    -0.032717814511    -0.331739420902    12.000000000000
         C           -0.323057599086     1.305176335589     0.054946501598    12.000000000000
         C           -0.279935813686    -1.170354965311     0.408402074898    12.000000000000
         C            1.170749162414     1.173553322889     0.378059612398    12.000000000000
         C            1.186524378014    -1.308014134711    -0.020210212702    12.000000000000
         C            1.800920219714     0.040362005389    -0.417461603402    12.000000000000
         C           -2.471779873986    -0.010550696311    -0.090839237402    12.000000000000
         H           -0.808784464286    -0.195023687211    -1.405629533602     1.007825032230
         H           -0.849521209586     1.719932893289     0.922169065798     1.007825032230
         H           -0.469545406486     2.021837380389    -0.759922110402     1.007825032230
         H           -0.811372840886    -2.112780438511     0.244763955998     1.007825032230
         H           -0.342858698786    -0.971223016811     1.485430830698     1.007825032230
         H            1.304395214014     0.970210756289     1.446548447398     1.007825032230
         H            1.684038739514     2.119180804789     0.183993157098     1.007825032230
         H            1.263662423014    -2.005093208011    -0.860218448202     1.007825032230
         H            1.763297391414    -1.751636147011     0.797190846898     1.007825032230
         H            1.640745470514     0.225106064489    -1.485592681502     1.007825032230
         H            2.884428391214     0.018300110289    -0.273017167902     1.007825032230
         H           -2.690035991486     0.090333779389     0.977260369698     1.007825032230
         H           -2.944858967686     0.830783941089    -0.605267976702     1.007825032230
         H           -2.947742071786    -0.929615078011    -0.443356889702     1.007825032230

  Running in c1 symmetry.

  Rotational constants: A =      0.13921  B =      0.07423  C =      0.05482 [cm^-1]
  Rotational constants: A =   4173.37434  B =   2225.48720  C =   1643.38170 [MHz]
  Nuclear repulsion =  330.300707310715211

  Charge       = 0
  Multiplicity = 1
  Electrons    = 56
  Nalpha       = 28
  Nbeta        = 28

  ==> Algorithm <==

  SCF Algorithm Type is DF.
  DIIS enabled.
  MOM disabled.
  Fractional occupation disabled.
  Guess Type is SAD.
  Energy threshold   = 1.00e-06
  Density threshold  = 1.00e-06
  Integral threshold = 0.00e+00

  ==> Primary Basis <==

  Basis Set: DEF2-SV(P)
    Blend: DEF2-SV(P)
    Number of shells: 70
    Number of basis function: 126
    Number of Cartesian functions: 133
    Spherical Harmonics?: true
    Max angular momentum: 2

  ==> DFT Potential <==

   => Composite Functional: PBE0 <= 

    PBE0 Hyb-GGA Exchange-Correlation Functional

    C. Adamo and V. Barone, J. Chem. Phys. 110, 6158 (1999)
    M. Ernzerhof and G. E. Scuseria, J. Chem. Phys. 110, 5029 (1999)

    Deriv               =              1
    GGA                 =           TRUE
    Meta                =          FALSE

    Exchange Hybrid     =           TRUE
    MP2 Hybrid          =          FALSE

   => Exchange Functionals <=

    0.7500   Perdew, Burke & Ernzerhof

   => Exact (HF) Exchange <=

    0.2500               HF 

   => Correlation Functionals <=

    1.0000   Perdew, Burke & Ernzerhof

   => Molecular Quadrature <=

    Radial Scheme          =       TREUTLER
    Pruning Scheme         =           FLAT
    Nuclear Scheme         =       TREUTLER

    BS radius alpha        =              1
    Pruning alpha          =              1
    Radial Points          =             75
    Spherical Points       =            302
    Total Points           =         469437
    Total Blocks           =           3446
    Max Points             =            256
    Max Functions          =            125

   => Loading Basis Set <=

    Name: (DEF2-SV(P) AUX)
    Role: JKFIT
    Keyword: DF_BASIS_SCF
    atoms 1-7  entry C          line   203 file /usr/share/psi4/basis/def2-sv_p_-jkfit.gbs 
    atoms 8-21 entry H          line    23 file /usr/share/psi4/basis/def2-sv_p_-jkfit.gbs 

  ==> Pre-Iterations <==

   -------------------------------------------------------
    Irrep   Nso     Nmo     Nalpha   Nbeta   Ndocc  Nsocc
   -------------------------------------------------------
     A        126     126       0       0       0       0
   -------------------------------------------------------
    Total     126     126      28      28      28       0
   -------------------------------------------------------

  ==> Integral Setup <==

  DFHelper Memory: AOs need 0.099 GiB; user supplied 1.430 GiB. Using in-core AOs.

  ==> MemDFJK: Density-Fitted J/K Matrices <==

    J tasked:                   Yes
    K tasked:                   Yes
    wK tasked:                   No
    OpenMP threads:               4
    Memory [MiB]:              1464
    Algorithm:                 Core
    Schwarz Cutoff:           1E-12
    Mask sparsity (%):       0.8062
    Fitting Condition:        1E-10

   => Auxiliary Basis Set <=

  Basis Set: (DEF2-SV(P) AUX)
    Blend: DEF2-SV_P_-JKFIT
    Number of shells: 259
    Number of basis function: 777
    Number of Cartesian functions: 903
    Spherical Harmonics?: true
    Max angular momentum: 4

  Cached 100.0% of DFT collocation blocks in 1.364 [GiB].

  Minimum eigenvalue in the overlap matrix is 7.3498397525E-04.
  Using Symmetric Orthogonalization.

  SCF Guess: Superposition of Atomic Densities via on-the-fly atomic UHF.

  ==> Iterations <==

                           Total Energy        Delta E     RMS |[F,P]|

   @DF-RKS iter SAD:  -274.32089250042554   -2.74321e+02   0.00000e+00 
   @DF-RKS iter   1:  -274.03732241113846    2.83570e-01   8.09745e-03 DIIS
   @DF-RKS iter   2:  -273.73940269528464    2.97920e-01   1.00572e-02 DIIS
   @DF-RKS iter   3:  -274.61447776178920   -8.75075e-01   8.22957e-04 DIIS
   @DF-RKS iter   4:  -274.61876501897052   -4.28726e-03   3.32929e-04 DIIS
   @DF-RKS iter   5:  -274.61959015157322   -8.25133e-04   7.14414e-05 DIIS
   @DF-RKS iter   6:  -274.61963033784656   -4.01863e-05   7.36623e-06 DIIS
   @DF-RKS iter   7:  -274.61963070387998   -3.66033e-07   3.55519e-06 DIIS
   @DF-RKS iter   8:  -274.61963079986037   -9.59804e-08   6.05175e-07 DIIS
  Energy and wave function converged.


  ==> Post-Iterations <==

    Orbital Energies [Eh]
    ---------------------

    Doubly Occupied:                                                      

       1A    -10.224963     2A    -10.216225     3A    -10.216116  
       4A    -10.215945     5A    -10.215050     6A    -10.214696  
       7A    -10.209174     8A     -0.854062     9A     -0.777471  
      10A     -0.750818    11A     -0.685587    12A     -0.623010  
      13A     -0.603942    14A     -0.533684    15A     -0.501979  
      16A     -0.481206    17A     -0.454991    18A     -0.426667  
      19A     -0.418724    20A     -0.392588    21A     -0.383608  
      22A     -0.374865    23A     -0.364847    24A     -0.354201  
      25A     -0.350328    26A     -0.310106    27A     -0.304390  
      28A     -0.302360  

    Virtual:                                                              

      29A      0.060936    30A      0.081384    31A      0.091184  
      32A      0.105144    33A      0.128296    34A      0.133879  
      35A      0.139113    36A      0.147454    37A      0.149819  
      38A      0.161239    39A      0.173673    40A      0.182739  
      41A      0.186380    42A      0.202300    43A      0.215514  
      44A      0.221829    45A      0.256564    46A      0.268308  
      47A      0.278168    48A      0.311978    49A      0.318148  
      50A      0.432744    51A      0.443861    52A      0.455740  
      53A      0.461343    54A      0.470681    55A      0.495288  
      56A      0.520291    57A      0.578036    58A      0.608355  
      59A      0.614295    60A      0.642023    61A      0.653983  
      62A      0.656882    63A      0.673705    64A      0.687250  
      65A      0.701417    66A      0.702876    67A      0.707351  
      68A      0.721328    69A      0.726362    70A      0.729193  
      71A      0.737181    72A      0.741381    73A      0.744302  
      74A      0.750349    75A      0.757697    76A      0.769088  
      77A      0.769364    78A      0.774635    79A      0.778215  
      80A      0.794855    81A      0.802072    82A      0.836736  
      83A      0.873331    84A      0.943130    85A      1.036932  
      86A      1.056736    87A      1.062157    88A      1.124741  
      89A      1.213630    90A      1.303429    91A      1.315404  
      92A      1.416818    93A      1.452500    94A      1.634562  
      95A      1.665139    96A      1.721349    97A      1.760647  
      98A      1.774370    99A      1.832859   100A      1.862757  
     101A      1.896605   102A      1.919698   103A      1.934174  
     104A      1.964917   105A      1.994352   106A      2.020226  
     107A      2.036978   108A      2.074926   109A      2.113230  
     110A      2.138145   111A      2.166429   112A      2.202953  
     113A      2.237249   114A      2.284544   115A      2.328044  
     116A      2.373493   117A      2.391964   118A      2.422939  
     119A      2.448966   120A      2.479714   121A      2.595235  
     122A      2.656492   123A      2.671841   124A      2.731843  
     125A      2.796717   126A      2.820009  

    Final Occupation by Irrep:
              A 
    DOCC [    28 ]

  @DF-RKS Final Energy:  -274.61963079986037

   => Energetics <=

    Nuclear Repulsion Energy =            330.3007073107152110
    One-Electron Energy =               -1023.0387312752141042
    Two-Electron Energy =                 450.7156412794986409
    DFT Exchange-Correlation Energy =     -32.5972481148601148
    Empirical Dispersion Energy =           0.0000000000000000
    VV10 Nonlocal Energy =                  0.0000000000000000
    Total Energy =                       -274.6196307998603743

Computation Completed


Properties will be evaluated at   0.000000,   0.000000,   0.000000 [a0]

Properties computed using the SCF density matrix

  Nuclear Dipole Moment: [e a0]
     X:    -1.2414      Y:     0.0284      Z:     0.2103

  Electronic Dipole Moment: [e a0]
     X:     1.2657      Y:    -0.0294      Z:    -0.2354

  Dipole Moment: [e a0]
     X:     0.0243      Y:    -0.0010      Z:    -0.0251     Total:     0.0349

  Dipole Moment: [D]
     X:     0.0618      Y:    -0.0025      Z:    -0.0638     Total:     0.0888


*** tstop() called on lenovo at Tue Jan 18 21:59:52 2022
Module time:
	user time   =      20.89 seconds =       0.35 minutes
	system time =       0.57 seconds =       0.01 minutes
	total time  =          8 seconds =       0.13 minutes
Total time:
	user time   =      20.89 seconds =       0.35 minutes
	system time =       0.57 seconds =       0.01 minutes
	total time  =          8 seconds =       0.13 minutes

    Psi4 stopped on: Tuesday, 18 January 2022 09:59PM
    Psi4 wall time for execution: 0:00:07.82

*** Psi4 exiting successfully. Buy a developer a beer!
