
    -----------------------------------------------------------------------
          Psi4: An Open-Source Ab Initio Electronic Structure Package
                               Psi4 1.3.2 release

                         Git: Rev {} zzzzzzz 


    R. M. Parrish, L. A. Burns, D. G. A. Smith, A. C. Simmonett,
    A. E. DePrince III, E. G. Hohenstein, U. Bozkaya, A. Yu. Sokolov,
    R. Di Remigio, R. M. Richard, J. F. Gonthier, A. M. James,
    H. R. McAlexander, A. Kumar, M. Saitow, X. Wang, B. P. Pritchard,
    P. Verma, H. F. Schaefer III, K. Patkowski, R. A. King, E. F. Valeev,
    F. A. Evangelista, J. M. Turney, T. D. Crawford, and C. D. Sherrill,
    J. Chem. Theory Comput. 13(7) pp 3185--3197 (2017).
    (doi: 10.1021/acs.jctc.7b00174)


                         Additional Contributions by
    P. Kraus, H. Kruse, M. H. Lechner, M. C. Schieber, R. A. Shaw,
    A. Alenaizan, R. Galvelis, Z. L. Glick, S. Lehtola, and J. P. Misiewicz

    -----------------------------------------------------------------------


    Psi4 started on: Tuesday, 18 January 2022 09:59PM

    Process ID: 844198
    Host:       lenovo
    PSIDATADIR: /usr/share/psi4
    Memory:     500.0 MiB
    Threads:    4
    
  ==> Input File <==

--------------------------------------------------------------------------
# PBE0/def2-SV(P) calculation on methylcyclohexane conformer #0 

memory 4 gb

molecule {
	    C    -1.0234356357   0.0009048418  -0.3189640376
	    C    -0.3016504725   1.2512069300   0.1757156585
	    C    -0.3016293164  -1.2521964662   0.1685496331
	    C     1.1717605538   1.2570219103  -0.2095145670
	    C     1.1717796282  -1.2557818385  -0.2167126630
	    C     1.8783991150  -0.0007805740   0.2777509362
	    C    -2.4864502525  -0.0002846353   0.0918916097
	    H    -0.9756062537   0.0040494411  -1.4178843959
	    H    -0.3909771196   1.2976695284   1.2698371636
	    H    -0.8000195352   2.1459422893  -0.2124975600
	    H    -0.7999860573  -2.1447040821  -0.2247743989
	    H    -0.3909497910  -1.3049194616   1.2623874470
	    H     1.6635761103   2.1492366019   0.1899652737
	    H     1.2582143370   1.3180165921  -1.3018482314
	    H     1.2582324259  -1.3105151818  -1.3093780496
	    H     1.6636102707  -2.1502630113   0.1776474424
	    H     2.9238751679   0.0001527081  -0.0454293388
	    H     1.8914724966  -0.0039238763   1.3751915645
	    H    -2.5825736891  -0.0033347400   1.1823848264
	    H    -3.0070318959   0.8846786747  -0.2840863566
	    H    -3.0069853235  -0.8831590982  -0.2890289433
}

set basis def2-SV(P)
energy('pbe0')
--------------------------------------------------------------------------

  Memory set to   3.725 GiB by Python driver.

*** tstart() called on lenovo
*** at Tue Jan 18 21:59:27 2022

   => Loading Basis Set <=

    Name: DEF2-SV(P)
    Role: ORBITAL
    Keyword: BASIS
    atoms 1-7  entry C          line    88 file /usr/share/psi4/basis/def2-sv_p_.gbs 
    atoms 8-21 entry H          line    15 file /usr/share/psi4/basis/def2-sv_p_.gbs 


         ---------------------------------------------------------
                                   SCF
               by Justin Turney, Rob Parrish, Andy Simmonett
                          and Daniel G. A. Smith
                              RKS Reference
                        4 Threads,   3814 MiB Core
         ---------------------------------------------------------

  ==> Geometry <==

    Molecular point group: c1
    Full point group: C1

    Geometry (in Angstrom), charge = 0, multiplicity = 1:

       Center              X                  Y                   Z               Mass       
    ------------   -----------------  -----------------  -----------------  -----------------
         C           -1.023435635704     0.000904841796    -0.318964037603    12.000000000000
         C           -0.301650472504     1.251206929996     0.175715658497    12.000000000000
         C           -0.301629316404    -1.252196466204     0.168549633097    12.000000000000
         C            1.171760553796     1.257021910296    -0.209514567003    12.000000000000
         C            1.171779628196    -1.255781838504    -0.216712663003    12.000000000000
         C            1.878399114996    -0.000780574004     0.277750936197    12.000000000000
         C           -2.486450252504    -0.000284635304     0.091891609697    12.000000000000
         H           -0.975606253704     0.004049441096    -1.417884395903     1.007825032230
         H           -0.390977119604     1.297669528396     1.269837163597     1.007825032230
         H           -0.800019535204     2.145942289296    -0.212497560003     1.007825032230
         H           -0.799986057304    -2.144704082104    -0.224774398903     1.007825032230
         H           -0.390949791004    -1.304919461604     1.262387446997     1.007825032230
         H            1.663576110296     2.149236601896     0.189965273697     1.007825032230
         H            1.258214336996     1.318016592096    -1.301848231403     1.007825032230
         H            1.258232425896    -1.310515181804    -1.309378049603     1.007825032230
         H            1.663610270696    -2.150263011304     0.177647442397     1.007825032230
         H            2.923875167896     0.000152708096    -0.045429338803     1.007825032230
         H            1.891472496596    -0.003923876304     1.375191564497     1.007825032230
         H           -2.582573689104    -0.003334740004     1.182384826397     1.007825032230
         H           -3.007031895904     0.884678674696    -0.284086356603     1.007825032230
         H           -3.006985323504    -0.883159098204    -0.289028943303     1.007825032230

  Running in c1 symmetry.

  Rotational constants: A =      0.14174  B =      0.07358  C =      0.05347 [cm^-1]
  Rotational constants: A =   4249.11816  B =   2205.72964  C =   1602.93611 [MHz]
  Nuclear repulsion =  329.947361773398939

  Charge       = 0
  Multiplicity = 1
  Electrons    = 56
  Nalpha       = 28
  Nbeta        = 28

  ==> Algorithm <==

  SCF Algorithm Type is DF.
  DIIS enabled.
  MOM disabled.
  Fractional occupation disabled.
  Guess Type is SAD.
  Energy threshold   = 1.00e-06
  Density threshold  = 1.00e-06
  Integral threshold = 0.00e+00

  ==> Primary Basis <==

  Basis Set: DEF2-SV(P)
    Blend: DEF2-SV(P)
    Number of shells: 70
    Number of basis function: 126
    Number of Cartesian functions: 133
    Spherical Harmonics?: true
    Max angular momentum: 2

  ==> DFT Potential <==

   => Composite Functional: PBE0 <= 

    PBE0 Hyb-GGA Exchange-Correlation Functional

    C. Adamo and V. Barone, J. Chem. Phys. 110, 6158 (1999)
    M. Ernzerhof and G. E. Scuseria, J. Chem. Phys. 110, 5029 (1999)

    Deriv               =              1
    GGA                 =           TRUE
    Meta                =          FALSE

    Exchange Hybrid     =           TRUE
    MP2 Hybrid          =          FALSE

   => Exchange Functionals <=

    0.7500   Perdew, Burke & Ernzerhof

   => Exact (HF) Exchange <=

    0.2500               HF 

   => Correlation Functionals <=

    1.0000   Perdew, Burke & Ernzerhof

   => Molecular Quadrature <=

    Radial Scheme          =       TREUTLER
    Pruning Scheme         =           FLAT
    Nuclear Scheme         =       TREUTLER

    BS radius alpha        =              1
    Pruning alpha          =              1
    Radial Points          =             75
    Spherical Points       =            302
    Total Points           =         469453
    Total Blocks           =           3452
    Max Points             =            256
    Max Functions          =            125

   => Loading Basis Set <=

    Name: (DEF2-SV(P) AUX)
    Role: JKFIT
    Keyword: DF_BASIS_SCF
    atoms 1-7  entry C          line   203 file /usr/share/psi4/basis/def2-sv_p_-jkfit.gbs 
    atoms 8-21 entry H          line    23 file /usr/share/psi4/basis/def2-sv_p_-jkfit.gbs 

  ==> Pre-Iterations <==

   -------------------------------------------------------
    Irrep   Nso     Nmo     Nalpha   Nbeta   Ndocc  Nsocc
   -------------------------------------------------------
     A        126     126       0       0       0       0
   -------------------------------------------------------
    Total     126     126      28      28      28       0
   -------------------------------------------------------

  ==> Integral Setup <==

  DFHelper Memory: AOs need 0.099 GiB; user supplied 1.438 GiB. Using in-core AOs.

  ==> MemDFJK: Density-Fitted J/K Matrices <==

    J tasked:                   Yes
    K tasked:                   Yes
    wK tasked:                   No
    OpenMP threads:               4
    Memory [MiB]:              1472
    Algorithm:                 Core
    Schwarz Cutoff:           1E-12
    Mask sparsity (%):       0.8062
    Fitting Condition:        1E-10

   => Auxiliary Basis Set <=

  Basis Set: (DEF2-SV(P) AUX)
    Blend: DEF2-SV_P_-JKFIT
    Number of shells: 259
    Number of basis function: 777
    Number of Cartesian functions: 903
    Spherical Harmonics?: true
    Max angular momentum: 4

  Cached 100.0% of DFT collocation blocks in 1.356 [GiB].

  Minimum eigenvalue in the overlap matrix is 1.5011942049E-03.
  Using Symmetric Orthogonalization.

  SCF Guess: Superposition of Atomic Densities via on-the-fly atomic UHF.

  ==> Iterations <==

                           Total Energy        Delta E     RMS |[F,P]|

   @DF-RKS iter SAD:  -274.34661401598333   -2.74347e+02   0.00000e+00 
   @DF-RKS iter   1:  -274.03871070727388    3.07903e-01   8.15302e-03 DIIS
   @DF-RKS iter   2:  -273.73431593777894    3.04395e-01   1.01393e-02 DIIS
   @DF-RKS iter   3:  -274.62510881405666   -8.90793e-01   8.14731e-04 DIIS
   @DF-RKS iter   4:  -274.62931042828291   -4.20161e-03   3.34346e-04 DIIS
   @DF-RKS iter   5:  -274.63013960628712   -8.29178e-04   7.35082e-05 DIIS
   @DF-RKS iter   6:  -274.63018218596483   -4.25797e-05   7.62496e-06 DIIS
   @DF-RKS iter   7:  -274.63018257858710   -3.92622e-07   3.73135e-06 DIIS
   @DF-RKS iter   8:  -274.63018268556903   -1.06982e-07   5.92888e-07 DIIS
  Energy and wave function converged.


  ==> Post-Iterations <==

    Orbital Energies [Eh]
    ---------------------

    Doubly Occupied:                                                      

       1A    -10.225067     2A    -10.216374     3A    -10.216343  
       4A    -10.216163     5A    -10.215242     6A    -10.215228  
       7A    -10.208992     8A     -0.855168     9A     -0.780005  
      10A     -0.754803    11A     -0.686253    12A     -0.619736  
      13A     -0.594545    14A     -0.562605    15A     -0.489254  
      16A     -0.461588    17A     -0.452488    18A     -0.446210  
      19A     -0.425429    20A     -0.395278    21A     -0.388180  
      22A     -0.377960    23A     -0.361587    24A     -0.349091  
      25A     -0.339181    26A     -0.321714    27A     -0.308102  
      28A     -0.303619  

    Virtual:                                                              

      29A      0.066161    30A      0.082025    31A      0.089040  
      32A      0.102499    33A      0.135234    34A      0.142181  
      35A      0.143222    36A      0.148025    37A      0.161616  
      38A      0.161827    39A      0.164290    40A      0.173241  
      41A      0.184677    42A      0.187568    43A      0.214529  
      44A      0.250776    45A      0.251265    46A      0.269014  
      47A      0.269610    48A      0.280223    49A      0.286788  
      50A      0.437526    51A      0.438516    52A      0.443267  
      53A      0.456726    54A      0.464600    55A      0.482724  
      56A      0.489128    57A      0.579554    58A      0.610685  
      59A      0.635260    60A      0.657216    61A      0.663046  
      62A      0.677213    63A      0.683040    64A      0.694619  
      65A      0.701835    66A      0.708648    67A      0.722815  
      68A      0.725165    69A      0.725308    70A      0.729732  
      71A      0.741046    72A      0.741633    73A      0.745661  
      74A      0.755421    75A      0.755961    76A      0.762665  
      77A      0.770710    78A      0.779407    79A      0.787715  
      80A      0.792684    81A      0.795227    82A      0.842092  
      83A      0.914776    84A      0.931631    85A      0.989840  
      86A      1.088985    87A      1.145513    88A      1.206603  
      89A      1.210146    90A      1.315110    91A      1.322799  
      92A      1.376757    93A      1.379384    94A      1.528337  
      95A      1.686130    96A      1.720603    97A      1.733437  
      98A      1.757871    99A      1.868927   100A      1.884661  
     101A      1.893155   102A      1.902208   103A      1.944183  
     104A      1.961383   105A      1.971646   106A      1.997704  
     107A      2.042523   108A      2.088997   109A      2.114785  
     110A      2.156197   111A      2.186659   112A      2.189338  
     113A      2.239319   114A      2.299335   115A      2.339579  
     116A      2.344479   117A      2.366374   118A      2.416722  
     119A      2.420751   120A      2.507920   121A      2.633893  
     122A      2.658951   123A      2.711591   124A      2.714783  
     125A      2.796009   126A      2.798248  

    Final Occupation by Irrep:
              A 
    DOCC [    28 ]

  @DF-RKS Final Energy:  -274.63018268556903

   => Energetics <=

    Nuclear Repulsion Energy =            329.9473617733989386
    One-Electron Energy =               -1022.3025613095210247
    Two-Electron Energy =                 450.3243825565713223
    DFT Exchange-Correlation Energy =     -32.5993657060182755
    Empirical Dispersion Energy =           0.0000000000000000
    VV10 Nonlocal Energy =                  0.0000000000000000
    Total Energy =                       -274.6301826855690251

Computation Completed


Properties will be evaluated at   0.000000,   0.000000,   0.000000 [a0]

Properties computed using the SCF density matrix

  Nuclear Dipole Moment: [e a0]
     X:    -1.2142      Y:    -0.0010      Z:     0.3492

  Electronic Dipole Moment: [e a0]
     X:     1.2340      Y:     0.0011      Z:    -0.3742

  Dipole Moment: [e a0]
     X:     0.0198      Y:     0.0001      Z:    -0.0250     Total:     0.0319

  Dipole Moment: [D]
     X:     0.0503      Y:     0.0002      Z:    -0.0635     Total:     0.0810


*** tstop() called on lenovo at Tue Jan 18 21:59:35 2022
Module time:
	user time   =      21.58 seconds =       0.36 minutes
	system time =       0.61 seconds =       0.01 minutes
	total time  =          8 seconds =       0.13 minutes
Total time:
	user time   =      21.58 seconds =       0.36 minutes
	system time =       0.61 seconds =       0.01 minutes
	total time  =          8 seconds =       0.13 minutes

    Psi4 stopped on: Tuesday, 18 January 2022 09:59PM
    Psi4 wall time for execution: 0:00:07.98

*** Psi4 exiting successfully. Buy a developer a beer!
