
    -----------------------------------------------------------------------
          Psi4: An Open-Source Ab Initio Electronic Structure Package
                               Psi4 1.3.2 release

                         Git: Rev {} zzzzzzz 


    R. M. Parrish, L. A. Burns, D. G. A. Smith, A. C. Simmonett,
    A. E. DePrince III, E. G. Hohenstein, U. Bozkaya, A. Yu. Sokolov,
    R. Di Remigio, R. M. Richard, J. F. Gonthier, A. M. James,
    H. R. McAlexander, A. Kumar, M. Saitow, X. Wang, B. P. Pritchard,
    P. Verma, H. F. Schaefer III, K. Patkowski, R. A. King, E. F. Valeev,
    F. A. Evangelista, J. M. Turney, T. D. Crawford, and C. D. Sherrill,
    J. Chem. Theory Comput. 13(7) pp 3185--3197 (2017).
    (doi: 10.1021/acs.jctc.7b00174)


                         Additional Contributions by
    P. Kraus, H. Kruse, M. H. Lechner, M. C. Schieber, R. A. Shaw,
    A. Alenaizan, R. Galvelis, Z. L. Glick, S. Lehtola, and J. P. Misiewicz

    -----------------------------------------------------------------------


    Psi4 started on: Saturday, 10 July 2021 02:29PM

    Process ID: 1466799
    Host:       thinkpad
    PSIDATADIR: /usr/share/psi4
    Memory:     500.0 MiB
    Threads:    4
    
  ==> Input File <==

--------------------------------------------------------------------------
# PBE0/def2-QZVP calculation on methylcyclohexane conformer #3 

memory 4 gb

molecule {
	    C     1.0216419245  -0.0001893047  -0.3161487792
	    C     0.2973378810  -1.2506189086   0.1775810939
	    C     0.2974575475   1.2506064200   0.1768888542
	    C    -1.1744365717  -1.2562548858  -0.2114123160
	    C    -1.1744003045   1.2563138446  -0.2118044939
	    C    -1.8832979544   0.0001086433   0.2763796821
	    C     2.5044935295   0.0000211444   0.0793266134
	    H     0.9512211911  -0.0006346245  -1.4122949918
	    H     0.3862894619  -1.2982365713   1.2715459249
	    H     0.7972905901  -2.1442785585  -0.2110917697
	    H     0.7974907920   2.1441281708  -0.2119996269
	    H     0.3864916794   1.2984938158   1.2708408296
	    H    -1.6669778433  -2.1498908639   0.1839200828
	    H    -1.2570179075  -1.3143309934  -1.3042533603
	    H    -1.2572891892   1.3142828167  -1.3046177348
	    H    -1.6667382460   2.1500405286   0.1835849215
	    H    -2.9272715623   0.0000773207  -0.0514713459
	    H    -1.9011221133   0.0002497318   1.3736480570
	    H     2.7616318183  -0.8827199494   0.6705925314
	    H     3.1617458457   0.0067799630  -0.7925468044
	    H     2.7583418418   0.8761945606   0.6816958235
}

# It is beneficial to initialize larger-basis calculations with
# a small reasonable basis; use def2-SV(P) for this purpose
set basis_guess def2-SV(P)
set basis def2-QZVP
energy('pbe0')
--------------------------------------------------------------------------

  Memory set to   3.725 GiB by Python driver.

*** tstart() called on thinkpad
*** at Sat Jul 10 14:29:04 2021


  //>>>>>>>>>>>>>>>>>>>>>>>>>>>>>>>>>>>//
  //    Guess SCF, DEF2-SV(P) Basis    //
  //<<<<<<<<<<<<<<<<<<<<<<<<<<<<<<<<<<<//

   => Loading Basis Set <=

    Name: DEF2-SV(P)
    Role: ORBITAL
    Keyword: BASIS
    atoms 1-7  entry C          line    88 file /usr/share/psi4/basis/def2-sv_p_.gbs 
    atoms 8-21 entry H          line    15 file /usr/share/psi4/basis/def2-sv_p_.gbs 


         ---------------------------------------------------------
                           SCF Castup computation                  
         ---------------------------------------------------------
                                   SCF
               by Justin Turney, Rob Parrish, Andy Simmonett
                          and Daniel G. A. Smith
                              RKS Reference
                        4 Threads,   3814 MiB Core
         ---------------------------------------------------------

  ==> Geometry <==

    Molecular point group: c1
    Full point group: C1

    Geometry (in Angstrom), charge = 0, multiplicity = 1:

       Center              X                  Y                   Z               Mass       
    ------------   -----------------  -----------------  -----------------  -----------------
         C            1.021641924501    -0.000189304710    -0.316148779207    12.000000000000
         C            0.297337881001    -1.250618908610     0.177581093893    12.000000000000
         C            0.297457547501     1.250606419990     0.176888854193    12.000000000000
         C           -1.174436571699    -1.256254885810    -0.211412316007    12.000000000000
         C           -1.174400304499     1.256313844590    -0.211804493907    12.000000000000
         C           -1.883297954399     0.000108643290     0.276379682093    12.000000000000
         C            2.504493529501     0.000021144390     0.079326613393    12.000000000000
         H            0.951221191101    -0.000634624510    -1.412294991807     1.007825032230
         H            0.386289461901    -1.298236571310     1.271545924893     1.007825032230
         H            0.797290590101    -2.144278558510    -0.211091769707     1.007825032230
         H            0.797490792001     2.144128170790    -0.211999626907     1.007825032230
         H            0.386491679401     1.298493815790     1.270840829593     1.007825032230
         H           -1.666977843299    -2.149890863910     0.183920082793     1.007825032230
         H           -1.257017907499    -1.314330993410    -1.304253360307     1.007825032230
         H           -1.257289189199     1.314282816690    -1.304617734807     1.007825032230
         H           -1.666738245999     2.150040528590     0.183584921493     1.007825032230
         H           -2.927271562299     0.000077320690    -0.051471345907     1.007825032230
         H           -1.901122113299     0.000249731790     1.373648056993     1.007825032230
         H            2.761631818301    -0.882719949410     0.670592531393     1.007825032230
         H            3.161745845701     0.006779962990    -0.792546804407     1.007825032230
         H            2.758341841801     0.876194560590     0.681695823493     1.007825032230

  Running in c1 symmetry.

  Rotational constants: A =      0.14193  B =      0.07301  C =      0.05318 [cm^-1]
  Rotational constants: A =   4255.03817  B =   2188.69819  C =   1594.21738 [MHz]
  Nuclear repulsion =  329.521155999122357

  Charge       = 0
  Multiplicity = 1
  Electrons    = 56
  Nalpha       = 28
  Nbeta        = 28

  ==> Algorithm <==

  SCF Algorithm Type is DF.
  DIIS enabled.
  MOM disabled.
  Fractional occupation disabled.
  Guess Type is SAD.
  Energy threshold   = 1.00e-06
  Density threshold  = 1.00e-06
  Integral threshold = 0.00e+00

  ==> Primary Basis <==

  Basis Set: DEF2-SV(P)
    Blend: DEF2-SV(P)
    Number of shells: 70
    Number of basis function: 126
    Number of Cartesian functions: 133
    Spherical Harmonics?: true
    Max angular momentum: 2

  ==> DFT Potential <==

   => Composite Functional: PBE0 <= 

    PBE0 Hyb-GGA Exchange-Correlation Functional

    C. Adamo and V. Barone, J. Chem. Phys. 110, 6158 (1999)
    M. Ernzerhof and G. E. Scuseria, J. Chem. Phys. 110, 5029 (1999)

    Deriv               =              1
    GGA                 =           TRUE
    Meta                =          FALSE

    Exchange Hybrid     =           TRUE
    MP2 Hybrid          =          FALSE

   => Exchange Functionals <=

    0.7500   Perdew, Burke & Ernzerhof

   => Exact (HF) Exchange <=

    0.2500               HF 

   => Correlation Functionals <=

    1.0000   Perdew, Burke & Ernzerhof

   => Molecular Quadrature <=

    Radial Scheme          =       TREUTLER
    Pruning Scheme         =           FLAT
    Nuclear Scheme         =       TREUTLER

    BS radius alpha        =              1
    Pruning alpha          =              1
    Radial Points          =             75
    Spherical Points       =            302
    Total Points           =         469450
    Total Blocks           =           3444
    Max Points             =            256
    Max Functions          =            125

   => Loading Basis Set <=

    Name: (DEF2-SV(P) AUX)
    Role: JKFIT
    Keyword: DF_BASIS_SCF
    atoms 1-7  entry C          line   203 file /usr/share/psi4/basis/def2-sv_p_-jkfit.gbs 
    atoms 8-21 entry H          line    23 file /usr/share/psi4/basis/def2-sv_p_-jkfit.gbs 

  ==> Pre-Iterations <==

   -------------------------------------------------------
    Irrep   Nso     Nmo     Nalpha   Nbeta   Ndocc  Nsocc
   -------------------------------------------------------
     A        126     126       0       0       0       0
   -------------------------------------------------------
    Total     126     126      28      28      28       0
   -------------------------------------------------------

  ==> Integral Setup <==

  ==> DiskDFJK: Density-Fitted J/K Matrices <==

    J tasked:                  Yes
    K tasked:                  Yes
    wK tasked:                  No
    OpenMP threads:              4
    Integrals threads:           4
    Memory [MiB]:             1470
    Algorithm:                Core
    Integral Cache:           NONE
    Schwarz Cutoff:          1E-12
    Fitting Condition:       1E-10

   => Auxiliary Basis Set <=

  Basis Set: (DEF2-SV(P) AUX)
    Blend: DEF2-SV_P_-JKFIT
    Number of shells: 259
    Number of basis function: 777
    Number of Cartesian functions: 903
    Spherical Harmonics?: true
    Max angular momentum: 4

  Cached 100.0% of DFT collocation blocks in 1.358 [GiB].

  Minimum eigenvalue in the overlap matrix is 1.3825007297E-03.
  Using Symmetric Orthogonalization.

  SCF Guess: Superposition of Atomic Densities via on-the-fly atomic UHF.

  ==> Iterations <==

                           Total Energy        Delta E     RMS |[F,P]|

   @DF-RKS iter SAD:  -274.33396351159882   -2.74334e+02   0.00000e+00 
   @DF-RKS iter   1:  -274.03738206128799    2.96581e-01   8.12542e-03 DIIS
   @DF-RKS iter   2:  -273.74042837929198    2.96954e-01   1.00758e-02 DIIS
   @DF-RKS iter   3:  -274.61980322196291   -8.79375e-01   8.09102e-04 DIIS
   @DF-RKS iter   4:  -274.62396540899766   -4.16219e-03   3.30846e-04 DIIS
   @DF-RKS iter   5:  -274.62477963611963   -8.14227e-04   7.34133e-05 DIIS
   @DF-RKS iter   6:  -274.62482220404775   -4.25679e-05   7.48609e-06 DIIS
   @DF-RKS iter   7:  -274.62482258427860   -3.80231e-07   3.61731e-06 DIIS
   @DF-RKS iter   8:  -274.62482268456802   -1.00289e-07   5.94292e-07 DIIS
  Energy and wave function converged.


  ==> Post-Iterations <==

    Orbital Energies [Eh]
    ---------------------

    Doubly Occupied:                                                      

       1A    -10.225215     2A    -10.216069     3A    -10.215942  
       4A    -10.215878     5A    -10.215149     6A    -10.215131  
       7A    -10.208141     8A     -0.854340     9A     -0.778069  
      10A     -0.754598    11A     -0.686205    12A     -0.619616  
      13A     -0.595128    14A     -0.562687    15A     -0.488110  
      16A     -0.460900    17A     -0.450720    18A     -0.444973  
      19A     -0.425841    20A     -0.396402    21A     -0.387811  
      22A     -0.379689    23A     -0.358968    24A     -0.349670  
      25A     -0.338167    26A     -0.320233    27A     -0.306734  
      28A     -0.302783  

    Virtual:                                                              

      29A      0.067856    30A      0.083411    31A      0.090266  
      32A      0.104915    33A      0.125001    34A      0.137343  
      35A      0.138834    36A      0.150019    37A      0.153881  
      38A      0.163168    39A      0.170679    40A      0.170998  
      41A      0.181146    42A      0.182638    43A      0.221275  
      44A      0.246042    45A      0.247631    46A      0.274338  
      47A      0.282262    48A      0.285608    49A      0.303067  
      50A      0.435719    51A      0.445266    52A      0.461070  
      53A      0.461795    54A      0.465753    55A      0.487106  
      56A      0.506873    57A      0.595183    58A      0.609906  
      59A      0.644766    60A      0.654530    61A      0.669250  
      62A      0.676726    63A      0.691405    64A      0.700168  
      65A      0.702281    66A      0.710268    67A      0.720032  
      68A      0.723231    69A      0.728443    70A      0.728962  
      71A      0.735011    72A      0.740802    73A      0.743866  
      74A      0.744867    75A      0.745471    76A      0.761776  
      77A      0.761945    78A      0.773679    79A      0.779376  
      80A      0.783280    81A      0.800062    82A      0.821769  
      83A      0.865608    84A      0.947912    85A      0.960393  
      86A      1.012598    87A      1.139600    88A      1.200708  
      89A      1.214420    90A      1.320418    91A      1.335155  
      92A      1.375328    93A      1.376506    94A      1.550716  
      95A      1.690950    96A      1.727063    97A      1.740502  
      98A      1.765481    99A      1.850584   100A      1.861911  
     101A      1.889107   102A      1.898124   103A      1.946449  
     104A      1.955636   105A      1.980688   106A      2.027644  
     107A      2.031930   108A      2.095546   109A      2.128249  
     110A      2.154649   111A      2.198248   112A      2.217399  
     113A      2.222354   114A      2.300028   115A      2.338780  
     116A      2.344723   117A      2.366128   118A      2.407513  
     119A      2.419571   120A      2.506250   121A      2.635346  
     122A      2.653803   123A      2.711755   124A      2.716715  
     125A      2.791852   126A      2.799265  

    Final Occupation by Irrep:
              A 
    DOCC [    28 ]

  @DF-RKS Final Energy:  -274.62482268456802

   => Energetics <=

    Nuclear Repulsion Energy =            329.5211559991223567
    One-Electron Energy =               -1021.4662335167149649
    Two-Electron Energy =                 449.9185063924966244
    DFT Exchange-Correlation Energy =     -32.5982515594720326
    Empirical Dispersion Energy =           0.0000000000000000
    VV10 Nonlocal Energy =                  0.0000000000000000
    Total Energy =                       -274.6248226845680165

Computation Completed

  //>>>>>>>>>>>>>>>>>>>>>>>>>>>>>>>>>>>//
  //                PBE0               //
  //<<<<<<<<<<<<<<<<<<<<<<<<<<<<<<<<<<<//

   => Loading Basis Set <=

    Name: DEF2-QZVP
    Role: ORBITAL
    Keyword: BASIS
    atoms 1-7  entry C          line   194 file /usr/share/psi4/basis/def2-qzvp.gbs 
    atoms 8-21 entry H          line    15 file /usr/share/psi4/basis/def2-qzvp.gbs 


         ---------------------------------------------------------
                                   SCF
               by Justin Turney, Rob Parrish, Andy Simmonett
                          and Daniel G. A. Smith
                              RKS Reference
                        4 Threads,   3814 MiB Core
         ---------------------------------------------------------

  ==> Geometry <==

    Molecular point group: c1
    Full point group: C1

    Geometry (in Angstrom), charge = 0, multiplicity = 1:

       Center              X                  Y                   Z               Mass       
    ------------   -----------------  -----------------  -----------------  -----------------
         C            1.021641924501    -0.000189304710    -0.316148779207    12.000000000000
         C            0.297337881001    -1.250618908610     0.177581093893    12.000000000000
         C            0.297457547501     1.250606419990     0.176888854193    12.000000000000
         C           -1.174436571699    -1.256254885810    -0.211412316007    12.000000000000
         C           -1.174400304499     1.256313844590    -0.211804493907    12.000000000000
         C           -1.883297954399     0.000108643290     0.276379682093    12.000000000000
         C            2.504493529501     0.000021144390     0.079326613393    12.000000000000
         H            0.951221191101    -0.000634624510    -1.412294991807     1.007825032230
         H            0.386289461901    -1.298236571310     1.271545924893     1.007825032230
         H            0.797290590101    -2.144278558510    -0.211091769707     1.007825032230
         H            0.797490792001     2.144128170790    -0.211999626907     1.007825032230
         H            0.386491679401     1.298493815790     1.270840829593     1.007825032230
         H           -1.666977843299    -2.149890863910     0.183920082793     1.007825032230
         H           -1.257017907499    -1.314330993410    -1.304253360307     1.007825032230
         H           -1.257289189199     1.314282816690    -1.304617734807     1.007825032230
         H           -1.666738245999     2.150040528590     0.183584921493     1.007825032230
         H           -2.927271562299     0.000077320690    -0.051471345907     1.007825032230
         H           -1.901122113299     0.000249731790     1.373648056993     1.007825032230
         H            2.761631818301    -0.882719949410     0.670592531393     1.007825032230
         H            3.161745845701     0.006779962990    -0.792546804407     1.007825032230
         H            2.758341841801     0.876194560590     0.681695823493     1.007825032230

  Running in c1 symmetry.

  Rotational constants: A =      0.14193  B =      0.07301  C =      0.05318 [cm^-1]
  Rotational constants: A =   4255.03817  B =   2188.69819  C =   1594.21738 [MHz]
  Nuclear repulsion =  329.521155999122357

  Charge       = 0
  Multiplicity = 1
  Electrons    = 56
  Nalpha       = 28
  Nbeta        = 28

  ==> Algorithm <==

  SCF Algorithm Type is DF.
  DIIS enabled.
  MOM disabled.
  Fractional occupation disabled.
  Guess Type is SAD.
  Energy threshold   = 1.00e-06
  Density threshold  = 1.00e-06
  Integral threshold = 0.00e+00

  ==> Primary Basis <==

  Basis Set: DEF2-QZVP
    Blend: DEF2-QZVP
    Number of shells: 259
    Number of basis function: 819
    Number of Cartesian functions: 994
    Spherical Harmonics?: true
    Max angular momentum: 4

  ==> DFT Potential <==

   => Composite Functional: PBE0 <= 

    PBE0 Hyb-GGA Exchange-Correlation Functional

    C. Adamo and V. Barone, J. Chem. Phys. 110, 6158 (1999)
    M. Ernzerhof and G. E. Scuseria, J. Chem. Phys. 110, 5029 (1999)

    Deriv               =              1
    GGA                 =           TRUE
    Meta                =          FALSE

    Exchange Hybrid     =           TRUE
    MP2 Hybrid          =          FALSE

   => Exchange Functionals <=

    0.7500   Perdew, Burke & Ernzerhof

   => Exact (HF) Exchange <=

    0.2500               HF 

   => Correlation Functionals <=

    1.0000   Perdew, Burke & Ernzerhof

   => Molecular Quadrature <=

    Radial Scheme          =       TREUTLER
    Pruning Scheme         =           FLAT
    Nuclear Scheme         =       TREUTLER

    BS radius alpha        =              1
    Pruning alpha          =              1
    Radial Points          =             75
    Spherical Points       =            302
    Total Points           =         474051
    Total Blocks           =           3476
    Max Points             =            256
    Max Functions          =            714

   => Loading Basis Set <=

    Name: (DEF2-QZVP AUX)
    Role: JKFIT
    Keyword: DF_BASIS_SCF
    atoms 1-7  entry C          line   203 file /usr/share/psi4/basis/def2-qzvp-jkfit.gbs 
    atoms 8-21 entry H          line    23 file /usr/share/psi4/basis/def2-qzvp-jkfit.gbs 


  Computing basis projection from DEF2-SV(P) to DEF2-QZVP

  ==> Pre-Iterations <==

   -------------------------------------------------------
    Irrep   Nso     Nmo     Nalpha   Nbeta   Ndocc  Nsocc
   -------------------------------------------------------
     A        819     819       0       0       0       0
   -------------------------------------------------------
    Total     819     819      28      28      28       0
   -------------------------------------------------------

  ==> Integral Setup <==

  ==> DiskDFJK: Density-Fitted J/K Matrices <==

    J tasked:                  Yes
    K tasked:                  Yes
    wK tasked:                  No
    OpenMP threads:              4
    Integrals threads:           4
    Memory [MiB]:             1812
    Algorithm:                Disk
    Integral Cache:           NONE
    Schwarz Cutoff:          1E-12
    Fitting Condition:       1E-10

   => Auxiliary Basis Set <=

  Basis Set: (DEF2-QZVP AUX)
    Blend: DEF2-QZVP-JKFIT
    Number of shells: 259
    Number of basis function: 777
    Number of Cartesian functions: 903
    Spherical Harmonics?: true
    Max angular momentum: 4

  Cached 16.7% of DFT collocation blocks in 1.034 [GiB].

  Minimum eigenvalue in the overlap matrix is 8.0957151077E-06.
  Using Symmetric Orthogonalization.

  SCF Guess: Orbitals guess was supplied from a previous computation.

  ==> Iterations <==

                           Total Energy        Delta E     RMS |[F,P]|

   @DF-RKS iter   0:  -274.73905795590440   -2.74739e+02   3.69136e-03 
   @DF-RKS iter   1:  -274.96133987237295   -2.22282e-01   5.62737e-05 DIIS
   @DF-RKS iter   2:  -274.96133857972887    1.29264e-06   5.33573e-05 DIIS
   @DF-RKS iter   3:  -274.96226836156848   -9.29782e-04   1.19824e-05 DIIS
   @DF-RKS iter   4:  -274.96231135900922   -4.29974e-05   3.54282e-06 DIIS
   @DF-RKS iter   5:  -274.96231513560429   -3.77660e-06   5.47841e-07 DIIS
   @DF-RKS iter   6:  -274.96231522395550   -8.83512e-08   1.01083e-07 DIIS
  Energy and wave function converged.


  ==> Post-Iterations <==

    Orbital Energies [Eh]
    ---------------------

    Doubly Occupied:                                                      

       1A    -10.219710     2A    -10.211616     3A    -10.211430  
       4A    -10.211248     5A    -10.210444     6A    -10.210432  
       7A    -10.204256     8A     -0.859712     9A     -0.784045  
      10A     -0.760774    11A     -0.692131    12A     -0.624308  
      13A     -0.599671    14A     -0.564873    15A     -0.486683  
      16A     -0.459168    17A     -0.449016    18A     -0.445433  
      19A     -0.424193    20A     -0.394676    21A     -0.385681  
      22A     -0.377399    23A     -0.356814    24A     -0.347726  
      25A     -0.336185    26A     -0.318991    27A     -0.304684  
      28A     -0.300831  

    Virtual:                                                              

      29A      0.031896    30A      0.038886    31A      0.042948  
      32A      0.051034    33A      0.073704    34A      0.078868  
      35A      0.084424    36A      0.090780    37A      0.092998  
      38A      0.103319    39A      0.112123    40A      0.112955  
      41A      0.121319    42A      0.126735    43A      0.142857  
      44A      0.151104    45A      0.154338    46A      0.182608  
      47A      0.184517    48A      0.188908    49A      0.193822  
      50A      0.205285    51A      0.207808    52A      0.220039  
      53A      0.222510    54A      0.237933    55A      0.247447  
      56A      0.256061    57A      0.258890    58A      0.266936  
      59A      0.279722    60A      0.285357    61A      0.292185  
      62A      0.304296    63A      0.309346    64A      0.316355  
      65A      0.317483    66A      0.322410    67A      0.329612  
      68A      0.331741    69A      0.332676    70A      0.347236  
      71A      0.347518    72A      0.350855    73A      0.363319  
      74A      0.363547    75A      0.371284    76A      0.377009  
      77A      0.387921    78A      0.390901    79A      0.391478  
      80A      0.399295    81A      0.409333    82A      0.419531  
      83A      0.476563    84A      0.491223    85A      0.517154  
      86A      0.521373    87A      0.538630    88A      0.555615  
      89A      0.559639    90A      0.561019    91A      0.563277  
      92A      0.569310    93A      0.573061    94A      0.592479  
      95A      0.594182    96A      0.601155    97A      0.617551  
      98A      0.622876    99A      0.623496   100A      0.633058  
     101A      0.638737   102A      0.642506   103A      0.649338  
     104A      0.675840   105A      0.676443   106A      0.694094  
     107A      0.697195   108A      0.732328   109A      0.772194  
     110A      0.779840   111A      0.785976   112A      0.789784  
     113A      0.812327   114A      0.815597   115A      0.820696  
     116A      0.821427   117A      0.831084   118A      0.831693  
     119A      0.834201   120A      0.841763   121A      0.843844  
     122A      0.849617   123A      0.853263   124A      0.865026  
     125A      0.870216   126A      0.872289   127A      0.873109  
     128A      0.874998   129A      0.896927   130A      0.897010  
     131A      0.904213   132A      0.906362   133A      0.913235  
     134A      0.928379   135A      0.930309   136A      0.947726  
     137A      0.953115   138A      0.963987   139A      0.970909  
     140A      0.994600   141A      1.008767   142A      1.009936  
     143A      1.012089   144A      1.026710   145A      1.038217  
     146A      1.067401   147A      1.072915   148A      1.074354  
     149A      1.086841   150A      1.093546   151A      1.103624  
     152A      1.124242   153A      1.128280   154A      1.130607  
     155A      1.145581   156A      1.155086   157A      1.162949  
     158A      1.178008   159A      1.182928   160A      1.188905  
     161A      1.194016   162A      1.211333   163A      1.223580  
     164A      1.226887   165A      1.244853   166A      1.277080  
     167A      1.289658   168A      1.314636   169A      1.320752  
     170A      1.331861   171A      1.332596   172A      1.341196  
     173A      1.344179   174A      1.384797   175A      1.395668  
     176A      1.402953   177A      1.418476   178A      1.419861  
     179A      1.443920   180A      1.446639   181A      1.459270  
     182A      1.477759   183A      1.485253   184A      1.503697  
     185A      1.511327   186A      1.524305   187A      1.526810  
     188A      1.535818   189A      1.546085   190A      1.565286  
     191A      1.586401   192A      1.591555   193A      1.609901  
     194A      1.614439   195A      1.641978   196A      1.648215  
     197A      1.661754   198A      1.671127   199A      1.676524  
     200A      1.735787   201A      1.738220   202A      1.760950  
     203A      1.769094   204A      1.774137   205A      1.787487  
     206A      1.798528   207A      1.833215   208A      1.835977  
     209A      1.845430   210A      1.870341   211A      1.895582  
     212A      1.896301   213A      1.924283   214A      1.947199  
     215A      1.953840   216A      1.960108   217A      1.980875  
     218A      1.983307   219A      1.987905   220A      1.990524  
     221A      2.003041   222A      2.010858   223A      2.026603  
     224A      2.029213   225A      2.046667   226A      2.055120  
     227A      2.064057   228A      2.079286   229A      2.079549  
     230A      2.102973   231A      2.105297   232A      2.117104  
     233A      2.118001   234A      2.121338   235A      2.135397  
     236A      2.137370   237A      2.159005   238A      2.166151  
     239A      2.166452   240A      2.184545   241A      2.194993  
     242A      2.202105   243A      2.210247   244A      2.214996  
     245A      2.226886   246A      2.235683   247A      2.242774  
     248A      2.248793   249A      2.254195   250A      2.258003  
     251A      2.273892   252A      2.290537   253A      2.298302  
     254A      2.304310   255A      2.310357   256A      2.325035  
     257A      2.335418   258A      2.338874   259A      2.346721  
     260A      2.370998   261A      2.387367   262A      2.389307  
     263A      2.397060   264A      2.420789   265A      2.427129  
     266A      2.440193   267A      2.454454   268A      2.464702  
     269A      2.468538   270A      2.493359   271A      2.504324  
     272A      2.505318   273A      2.514645   274A      2.525676  
     275A      2.541334   276A      2.541995   277A      2.553148  
     278A      2.564501   279A      2.565647   280A      2.585589  
     281A      2.602669   282A      2.607664   283A      2.625010  
     284A      2.635375   285A      2.651176   286A      2.664697  
     287A      2.667251   288A      2.673656   289A      2.689125  
     290A      2.694601   291A      2.705517   292A      2.711132  
     293A      2.719749   294A      2.737356   295A      2.751474  
     296A      2.761024   297A      2.768921   298A      2.771264  
     299A      2.772479   300A      2.777481   301A      2.815418  
     302A      2.818284   303A      2.837811   304A      2.844870  
     305A      2.850920   306A      2.870274   307A      2.887307  
     308A      2.897300   309A      2.906592   310A      2.907065  
     311A      2.920755   312A      2.925005   313A      2.932037  
     314A      2.941083   315A      2.945969   316A      2.956626  
     317A      2.968049   318A      2.980832   319A      2.982350  
     320A      2.984513   321A      2.997628   322A      3.002275  
     323A      3.005848   324A      3.041145   325A      3.041916  
     326A      3.049335   327A      3.070363   328A      3.079347  
     329A      3.082025   330A      3.097735   331A      3.098979  
     332A      3.111139   333A      3.122060   334A      3.130266  
     335A      3.147879   336A      3.156925   337A      3.184169  
     338A      3.194386   339A      3.201196   340A      3.225683  
     341A      3.237421   342A      3.242892   343A      3.250453  
     344A      3.262473   345A      3.264748   346A      3.296838  
     347A      3.307430   348A      3.324806   349A      3.336937  
     350A      3.352965   351A      3.376257   352A      3.390533  
     353A      3.400895   354A      3.404085   355A      3.410428  
     356A      3.416943   357A      3.435957   358A      3.440934  
     359A      3.445526   360A      3.462889   361A      3.491713  
     362A      3.501260   363A      3.530187   364A      3.548602  
     365A      3.550490   366A      3.553787   367A      3.577575  
     368A      3.601583   369A      3.638181   370A      3.663809  
     371A      3.668404   372A      3.679752   373A      3.692622  
     374A      3.697244   375A      3.717398   376A      3.726319  
     377A      3.735082   378A      3.736018   379A      3.751776  
     380A      3.758051   381A      3.769835   382A      3.781957  
     383A      3.805903   384A      3.812940   385A      3.828299  
     386A      3.838245   387A      3.866377   388A      3.879879  
     389A      3.894156   390A      3.909147   391A      3.924850  
     392A      3.936504   393A      3.955125   394A      3.969808  
     395A      3.973941   396A      3.991351   397A      3.998131  
     398A      4.011423   399A      4.020822   400A      4.027947  
     401A      4.033021   402A      4.067267   403A      4.071708  
     404A      4.090847   405A      4.146571   406A      4.179037  
     407A      4.194536   408A      4.220330   409A      4.227280  
     410A      4.248192   411A      4.266063   412A      4.286339  
     413A      4.359956   414A      4.428435   415A      4.438726  
     416A      4.441991   417A      4.528757   418A      4.548327  
     419A      4.638535   420A      4.675537   421A      4.810094  
     422A      4.828555   423A      4.831894   424A      4.862290  
     425A      4.892816   426A      4.915937   427A      4.926600  
     428A      4.992705   429A      5.019376   430A      5.082108  
     431A      5.146027   432A      5.147626   433A      5.169999  
     434A      5.231831   435A      5.236341   436A      5.298117  
     437A      5.303506   438A      5.349853   439A      5.354825  
     440A      5.388639   441A      5.470773   442A      5.478545  
     443A      5.499859   444A      5.508101   445A      5.538138  
     446A      5.539254   447A      5.575598   448A      5.598525  
     449A      5.607994   450A      5.625900   451A      5.662252  
     452A      5.673059   453A      5.731883   454A      5.732770  
     455A      5.747165   456A      5.753273   457A      5.762485  
     458A      5.790633   459A      5.797801   460A      5.809206  
     461A      5.820281   462A      5.834338   463A      5.835967  
     464A      5.845618   465A      5.847279   466A      5.853297  
     467A      5.858127   468A      5.863668   469A      5.892108  
     470A      5.909106   471A      5.928195   472A      5.932386  
     473A      5.947140   474A      5.947419   475A      5.973326  
     476A      5.978675   477A      6.003126   478A      6.011403  
     479A      6.034021   480A      6.042707   481A      6.046812  
     482A      6.062770   483A      6.067140   484A      6.073755  
     485A      6.083167   486A      6.095442   487A      6.111310  
     488A      6.117466   489A      6.120911   490A      6.125572  
     491A      6.143755   492A      6.145236   493A      6.160195  
     494A      6.172831   495A      6.192950   496A      6.199978  
     497A      6.214672   498A      6.217467   499A      6.225425  
     500A      6.226316   501A      6.240612   502A      6.244343  
     503A      6.254841   504A      6.266508   505A      6.285315  
     506A      6.286777   507A      6.298330   508A      6.320130  
     509A      6.320424   510A      6.342294   511A      6.354815  
     512A      6.359059   513A      6.361621   514A      6.365130  
     515A      6.377631   516A      6.403016   517A      6.414994  
     518A      6.424823   519A      6.434806   520A      6.436430  
     521A      6.448321   522A      6.449878   523A      6.459420  
     524A      6.473121   525A      6.474317   526A      6.499251  
     527A      6.507850   528A      6.510902   529A      6.539234  
     530A      6.546964   531A      6.556290   532A      6.563885  
     533A      6.578404   534A      6.585524   535A      6.594697  
     536A      6.620594   537A      6.646938   538A      6.653851  
     539A      6.661525   540A      6.665679   541A      6.696431  
     542A      6.703245   543A      6.704943   544A      6.712105  
     545A      6.722448   546A      6.743850   547A      6.768665  
     548A      6.783109   549A      6.793532   550A      6.795352  
     551A      6.811837   552A      6.814589   553A      6.826232  
     554A      6.842355   555A      6.852577   556A      6.874517  
     557A      6.885444   558A      6.899513   559A      6.900202  
     560A      6.945452   561A      6.950922   562A      6.965812  
     563A      6.977686   564A      6.985105   565A      7.009528  
     566A      7.012223   567A      7.023738   568A      7.047365  
     569A      7.058122   570A      7.067469   571A      7.086387  
     572A      7.095291   573A      7.104228   574A      7.129006  
     575A      7.132673   576A      7.140961   577A      7.151150  
     578A      7.182062   579A      7.192104   580A      7.222731  
     581A      7.236975   582A      7.250753   583A      7.271545  
     584A      7.276302   585A      7.276858   586A      7.316066  
     587A      7.338794   588A      7.340689   589A      7.375701  
     590A      7.386740   591A      7.422295   592A      7.442938  
     593A      7.449902   594A      7.459914   595A      7.465542  
     596A      7.494198   597A      7.495641   598A      7.505701  
     599A      7.513355   600A      7.514483   601A      7.532106  
     602A      7.548726   603A      7.551839   604A      7.573888  
     605A      7.584078   606A      7.597365   607A      7.621592  
     608A      7.633653   609A      7.638843   610A      7.663198  
     611A      7.671210   612A      7.674395   613A      7.712612  
     614A      7.715392   615A      7.721032   616A      7.723361  
     617A      7.733895   618A      7.736111   619A      7.753990  
     620A      7.756860   621A      7.767313   622A      7.778207  
     623A      7.787590   624A      7.789466   625A      7.816032  
     626A      7.827861   627A      7.834406   628A      7.839653  
     629A      7.853383   630A      7.869363   631A      7.870668  
     632A      7.915591   633A      7.923751   634A      7.929037  
     635A      7.934614   636A      7.940839   637A      7.945854  
     638A      7.960764   639A      7.965771   640A      7.978834  
     641A      7.991912   642A      8.001202   643A      8.021531  
     644A      8.033118   645A      8.053571   646A      8.054900  
     647A      8.062573   648A      8.089423   649A      8.093059  
     650A      8.108388   651A      8.113637   652A      8.118490  
     653A      8.131797   654A      8.142038   655A      8.144772  
     656A      8.147579   657A      8.174420   658A      8.190812  
     659A      8.205301   660A      8.244123   661A      8.254488  
     662A      8.261862   663A      8.269978   664A      8.286698  
     665A      8.297425   666A      8.316301   667A      8.327533  
     668A      8.356757   669A      8.366638   670A      8.373916  
     671A      8.391196   672A      8.398226   673A      8.425318  
     674A      8.444299   675A      8.461461   676A      8.468304  
     677A      8.480074   678A      8.490298   679A      8.506127  
     680A      8.506448   681A      8.515244   682A      8.525882  
     683A      8.535304   684A      8.553550   685A      8.558083  
     686A      8.573342   687A      8.579847   688A      8.589556  
     689A      8.600269   690A      8.610623   691A      8.626411  
     692A      8.633576   693A      8.648599   694A      8.648970  
     695A      8.658420   696A      8.678201   697A      8.681864  
     698A      8.692469   699A      8.703696   700A      8.718707  
     701A      8.723491   702A      8.733758   703A      8.737930  
     704A      8.763286   705A      8.765986   706A      8.803437  
     707A      8.808084   708A      8.820461   709A      8.821084  
     710A      8.825928   711A      8.847755   712A      8.890069  
     713A      8.894778   714A      8.917962   715A      8.933687  
     716A      8.951479   717A      8.985390   718A      8.989016  
     719A      9.012285   720A      9.016880   721A      9.037693  
     722A      9.048609   723A      9.072233   724A      9.074680  
     725A      9.085157   726A      9.115980   727A      9.138649  
     728A      9.162695   729A      9.174436   730A      9.179809  
     731A      9.200057   732A      9.210787   733A      9.231018  
     734A      9.246467   735A      9.256169   736A      9.274239  
     737A      9.313799   738A      9.337817   739A      9.341850  
     740A      9.369517   741A      9.394446   742A      9.442385  
     743A      9.477661   744A      9.544307   745A      9.642492  
     746A      9.686484   747A      9.700682   748A      9.701376  
     749A      9.722691   750A      9.727018   751A      9.741075  
     752A      9.767938   753A      9.774131   754A      9.781149  
     755A      9.829692   756A      9.843154   757A      9.871077  
     758A      9.882547   759A      9.913340   760A      9.942331  
     761A      9.945795   762A      9.972021   763A      9.999785  
     764A     10.021768   765A     10.031092   766A     10.052797  
     767A     10.066063   768A     10.118531   769A     10.122826  
     770A     10.129951   771A     10.158412   772A     10.166569  
     773A     10.217098   774A     10.237294   775A     10.246335  
     776A     10.259056   777A     10.270009   778A     10.274229  
     779A     10.291369   780A     10.325798   781A     10.347927  
     782A     10.368747   783A     10.373915   784A     10.400481  
     785A     10.411795   786A     10.487545   787A     10.547275  
     788A     10.624795   789A     10.660615   790A     10.730290  
     791A     10.738940   792A     12.178366   793A     12.189463  
     794A     12.394505   795A     12.443298   796A     12.477533  
     797A     12.489745   798A     12.530021   799A     12.991046  
     800A     13.141873   801A     13.203888   802A     13.209949  
     803A     13.249954   804A     13.282028   805A     13.441457  
     806A     29.112704   807A     29.159170   808A     29.176110  
     809A     29.211137   810A     29.230747   811A     29.247765  
     812A     29.326755   813A    148.349943   814A    148.397350  
     815A    148.403631   816A    148.480545   817A    148.501697  
     818A    148.515543   819A    148.603428  

    Final Occupation by Irrep:
              A 
    DOCC [    28 ]

  @DF-RKS Final Energy:  -274.96231522395550

   => Energetics <=

    Nuclear Repulsion Energy =            329.5211559991223567
    One-Electron Energy =               -1022.1402877476238018
    Two-Electron Energy =                 450.3112625664828101
    DFT Exchange-Correlation Energy =     -32.6544460419368789
    Empirical Dispersion Energy =           0.0000000000000000
    VV10 Nonlocal Energy =                  0.0000000000000000
    Total Energy =                       -274.9623152239554997

Computation Completed


Properties will be evaluated at   0.000000,   0.000000,   0.000000 [a0]

Properties computed using the SCF density matrix

  Nuclear Dipole Moment: [e a0]
     X:     1.2413      Y:     0.0001      Z:     0.3258

  Electronic Dipole Moment: [e a0]
     X:    -1.2771      Y:    -0.0001      Z:    -0.3602

  Dipole Moment: [e a0]
     X:    -0.0358      Y:     0.0001      Z:    -0.0344     Total:     0.0496

  Dipole Moment: [D]
     X:    -0.0909      Y:     0.0001      Z:    -0.0874     Total:     0.1261


*** tstop() called on thinkpad at Sat Jul 10 14:31:30 2021
Module time:
	user time   =     499.59 seconds =       8.33 minutes
	system time =      11.98 seconds =       0.20 minutes
	total time  =        146 seconds =       2.43 minutes
Total time:
	user time   =     499.59 seconds =       8.33 minutes
	system time =      11.98 seconds =       0.20 minutes
	total time  =        146 seconds =       2.43 minutes

    Psi4 stopped on: Saturday, 10 July 2021 02:31PM
    Psi4 wall time for execution: 0:02:26.05

*** Psi4 exiting successfully. Buy a developer a beer!
