
    -----------------------------------------------------------------------
          Psi4: An Open-Source Ab Initio Electronic Structure Package
                               Psi4 1.3.2 release

                         Git: Rev {} zzzzzzz 


    R. M. Parrish, L. A. Burns, D. G. A. Smith, A. C. Simmonett,
    A. E. DePrince III, E. G. Hohenstein, U. Bozkaya, A. Yu. Sokolov,
    R. Di Remigio, R. M. Richard, J. F. Gonthier, A. M. James,
    H. R. McAlexander, A. Kumar, M. Saitow, X. Wang, B. P. Pritchard,
    P. Verma, H. F. Schaefer III, K. Patkowski, R. A. King, E. F. Valeev,
    F. A. Evangelista, J. M. Turney, T. D. Crawford, and C. D. Sherrill,
    J. Chem. Theory Comput. 13(7) pp 3185--3197 (2017).
    (doi: 10.1021/acs.jctc.7b00174)


                         Additional Contributions by
    P. Kraus, H. Kruse, M. H. Lechner, M. C. Schieber, R. A. Shaw,
    A. Alenaizan, R. Galvelis, Z. L. Glick, S. Lehtola, and J. P. Misiewicz

    -----------------------------------------------------------------------


    Psi4 started on: Tuesday, 18 January 2022 09:44PM

    Process ID: 836462
    Host:       lenovo
    PSIDATADIR: /usr/share/psi4
    Memory:     500.0 MiB
    Threads:    4
    
  ==> Input File <==

--------------------------------------------------------------------------
# PBE0/def2-QZVP calculation on methylcyclohexane conformer #0 

memory 4 gb

molecule {
	    C    -1.0234356357   0.0009048418  -0.3189640376
	    C    -0.3016504725   1.2512069300   0.1757156585
	    C    -0.3016293164  -1.2521964662   0.1685496331
	    C     1.1717605538   1.2570219103  -0.2095145670
	    C     1.1717796282  -1.2557818385  -0.2167126630
	    C     1.8783991150  -0.0007805740   0.2777509362
	    C    -2.4864502525  -0.0002846353   0.0918916097
	    H    -0.9756062537   0.0040494411  -1.4178843959
	    H    -0.3909771196   1.2976695284   1.2698371636
	    H    -0.8000195352   2.1459422893  -0.2124975600
	    H    -0.7999860573  -2.1447040821  -0.2247743989
	    H    -0.3909497910  -1.3049194616   1.2623874470
	    H     1.6635761103   2.1492366019   0.1899652737
	    H     1.2582143370   1.3180165921  -1.3018482314
	    H     1.2582324259  -1.3105151818  -1.3093780496
	    H     1.6636102707  -2.1502630113   0.1776474424
	    H     2.9238751679   0.0001527081  -0.0454293388
	    H     1.8914724966  -0.0039238763   1.3751915645
	    H    -2.5825736891  -0.0033347400   1.1823848264
	    H    -3.0070318959   0.8846786747  -0.2840863566
	    H    -3.0069853235  -0.8831590982  -0.2890289433
}

# It is beneficial to initialize larger-basis calculations with
# a small reasonable basis; use def2-SV(P) for this purpose
set basis_guess def2-SV(P)
set basis def2-QZVP
energy('pbe0')
--------------------------------------------------------------------------

  Memory set to   3.725 GiB by Python driver.

*** tstart() called on lenovo
*** at Tue Jan 18 21:44:53 2022


  //>>>>>>>>>>>>>>>>>>>>>>>>>>>>>>>>>>>//
  //    Guess SCF, DEF2-SV(P) Basis    //
  //<<<<<<<<<<<<<<<<<<<<<<<<<<<<<<<<<<<//

   => Loading Basis Set <=

    Name: DEF2-SV(P)
    Role: ORBITAL
    Keyword: BASIS
    atoms 1-7  entry C          line    88 file /usr/share/psi4/basis/def2-sv_p_.gbs 
    atoms 8-21 entry H          line    15 file /usr/share/psi4/basis/def2-sv_p_.gbs 


         ---------------------------------------------------------
                           SCF Castup computation                  
         ---------------------------------------------------------
                                   SCF
               by Justin Turney, Rob Parrish, Andy Simmonett
                          and Daniel G. A. Smith
                              RKS Reference
                        4 Threads,   3814 MiB Core
         ---------------------------------------------------------

  ==> Geometry <==

    Molecular point group: c1
    Full point group: C1

    Geometry (in Angstrom), charge = 0, multiplicity = 1:

       Center              X                  Y                   Z               Mass       
    ------------   -----------------  -----------------  -----------------  -----------------
         C           -1.023435635704     0.000904841796    -0.318964037603    12.000000000000
         C           -0.301650472504     1.251206929996     0.175715658497    12.000000000000
         C           -0.301629316404    -1.252196466204     0.168549633097    12.000000000000
         C            1.171760553796     1.257021910296    -0.209514567003    12.000000000000
         C            1.171779628196    -1.255781838504    -0.216712663003    12.000000000000
         C            1.878399114996    -0.000780574004     0.277750936197    12.000000000000
         C           -2.486450252504    -0.000284635304     0.091891609697    12.000000000000
         H           -0.975606253704     0.004049441096    -1.417884395903     1.007825032230
         H           -0.390977119604     1.297669528396     1.269837163597     1.007825032230
         H           -0.800019535204     2.145942289296    -0.212497560003     1.007825032230
         H           -0.799986057304    -2.144704082104    -0.224774398903     1.007825032230
         H           -0.390949791004    -1.304919461604     1.262387446997     1.007825032230
         H            1.663576110296     2.149236601896     0.189965273697     1.007825032230
         H            1.258214336996     1.318016592096    -1.301848231403     1.007825032230
         H            1.258232425896    -1.310515181804    -1.309378049603     1.007825032230
         H            1.663610270696    -2.150263011304     0.177647442397     1.007825032230
         H            2.923875167896     0.000152708096    -0.045429338803     1.007825032230
         H            1.891472496596    -0.003923876304     1.375191564497     1.007825032230
         H           -2.582573689104    -0.003334740004     1.182384826397     1.007825032230
         H           -3.007031895904     0.884678674696    -0.284086356603     1.007825032230
         H           -3.006985323504    -0.883159098204    -0.289028943303     1.007825032230

  Running in c1 symmetry.

  Rotational constants: A =      0.14174  B =      0.07358  C =      0.05347 [cm^-1]
  Rotational constants: A =   4249.11816  B =   2205.72964  C =   1602.93611 [MHz]
  Nuclear repulsion =  329.947361773398939

  Charge       = 0
  Multiplicity = 1
  Electrons    = 56
  Nalpha       = 28
  Nbeta        = 28

  ==> Algorithm <==

  SCF Algorithm Type is DF.
  DIIS enabled.
  MOM disabled.
  Fractional occupation disabled.
  Guess Type is SAD.
  Energy threshold   = 1.00e-06
  Density threshold  = 1.00e-06
  Integral threshold = 0.00e+00

  ==> Primary Basis <==

  Basis Set: DEF2-SV(P)
    Blend: DEF2-SV(P)
    Number of shells: 70
    Number of basis function: 126
    Number of Cartesian functions: 133
    Spherical Harmonics?: true
    Max angular momentum: 2

  ==> DFT Potential <==

   => Composite Functional: PBE0 <= 

    PBE0 Hyb-GGA Exchange-Correlation Functional

    C. Adamo and V. Barone, J. Chem. Phys. 110, 6158 (1999)
    M. Ernzerhof and G. E. Scuseria, J. Chem. Phys. 110, 5029 (1999)

    Deriv               =              1
    GGA                 =           TRUE
    Meta                =          FALSE

    Exchange Hybrid     =           TRUE
    MP2 Hybrid          =          FALSE

   => Exchange Functionals <=

    0.7500   Perdew, Burke & Ernzerhof

   => Exact (HF) Exchange <=

    0.2500               HF 

   => Correlation Functionals <=

    1.0000   Perdew, Burke & Ernzerhof

   => Molecular Quadrature <=

    Radial Scheme          =       TREUTLER
    Pruning Scheme         =           FLAT
    Nuclear Scheme         =       TREUTLER

    BS radius alpha        =              1
    Pruning alpha          =              1
    Radial Points          =             75
    Spherical Points       =            302
    Total Points           =         469453
    Total Blocks           =           3452
    Max Points             =            256
    Max Functions          =            125

   => Loading Basis Set <=

    Name: (DEF2-SV(P) AUX)
    Role: JKFIT
    Keyword: DF_BASIS_SCF
    atoms 1-7  entry C          line   203 file /usr/share/psi4/basis/def2-sv_p_-jkfit.gbs 
    atoms 8-21 entry H          line    23 file /usr/share/psi4/basis/def2-sv_p_-jkfit.gbs 

  ==> Pre-Iterations <==

   -------------------------------------------------------
    Irrep   Nso     Nmo     Nalpha   Nbeta   Ndocc  Nsocc
   -------------------------------------------------------
     A        126     126       0       0       0       0
   -------------------------------------------------------
    Total     126     126      28      28      28       0
   -------------------------------------------------------

  ==> Integral Setup <==

  ==> DiskDFJK: Density-Fitted J/K Matrices <==

    J tasked:                  Yes
    K tasked:                  Yes
    wK tasked:                  No
    OpenMP threads:              4
    Integrals threads:           4
    Memory [MiB]:             1472
    Algorithm:                Core
    Integral Cache:           NONE
    Schwarz Cutoff:          1E-12
    Fitting Condition:       1E-10

   => Auxiliary Basis Set <=

  Basis Set: (DEF2-SV(P) AUX)
    Blend: DEF2-SV_P_-JKFIT
    Number of shells: 259
    Number of basis function: 777
    Number of Cartesian functions: 903
    Spherical Harmonics?: true
    Max angular momentum: 4

  Cached 100.0% of DFT collocation blocks in 1.356 [GiB].

  Minimum eigenvalue in the overlap matrix is 1.5011942049E-03.
  Using Symmetric Orthogonalization.

  SCF Guess: Superposition of Atomic Densities via on-the-fly atomic UHF.

  ==> Iterations <==

                           Total Energy        Delta E     RMS |[F,P]|

   @DF-RKS iter SAD:  -274.34661401598248   -2.74347e+02   0.00000e+00 
   @DF-RKS iter   1:  -274.03871070727365    3.07903e-01   8.15302e-03 DIIS
   @DF-RKS iter   2:  -273.73431593777525    3.04395e-01   1.01393e-02 DIIS
   @DF-RKS iter   3:  -274.62510881405643   -8.90793e-01   8.14731e-04 DIIS
   @DF-RKS iter   4:  -274.62931042828274   -4.20161e-03   3.34346e-04 DIIS
   @DF-RKS iter   5:  -274.63013960628655   -8.29178e-04   7.35082e-05 DIIS
   @DF-RKS iter   6:  -274.63018218596437   -4.25797e-05   7.62496e-06 DIIS
   @DF-RKS iter   7:  -274.63018257858698   -3.92623e-07   3.73135e-06 DIIS
   @DF-RKS iter   8:  -274.63018268556823   -1.06981e-07   5.92888e-07 DIIS
  Energy and wave function converged.


  ==> Post-Iterations <==

    Orbital Energies [Eh]
    ---------------------

    Doubly Occupied:                                                      

       1A    -10.225067     2A    -10.216374     3A    -10.216343  
       4A    -10.216163     5A    -10.215242     6A    -10.215228  
       7A    -10.208992     8A     -0.855168     9A     -0.780005  
      10A     -0.754803    11A     -0.686253    12A     -0.619736  
      13A     -0.594545    14A     -0.562605    15A     -0.489254  
      16A     -0.461588    17A     -0.452488    18A     -0.446210  
      19A     -0.425429    20A     -0.395278    21A     -0.388180  
      22A     -0.377960    23A     -0.361587    24A     -0.349091  
      25A     -0.339181    26A     -0.321714    27A     -0.308102  
      28A     -0.303619  

    Virtual:                                                              

      29A      0.066161    30A      0.082025    31A      0.089040  
      32A      0.102499    33A      0.135234    34A      0.142181  
      35A      0.143222    36A      0.148025    37A      0.161616  
      38A      0.161827    39A      0.164290    40A      0.173241  
      41A      0.184677    42A      0.187568    43A      0.214529  
      44A      0.250776    45A      0.251265    46A      0.269014  
      47A      0.269610    48A      0.280223    49A      0.286788  
      50A      0.437526    51A      0.438516    52A      0.443267  
      53A      0.456726    54A      0.464600    55A      0.482724  
      56A      0.489128    57A      0.579554    58A      0.610685  
      59A      0.635260    60A      0.657216    61A      0.663046  
      62A      0.677213    63A      0.683040    64A      0.694619  
      65A      0.701835    66A      0.708648    67A      0.722815  
      68A      0.725165    69A      0.725308    70A      0.729732  
      71A      0.741046    72A      0.741633    73A      0.745661  
      74A      0.755421    75A      0.755961    76A      0.762665  
      77A      0.770710    78A      0.779407    79A      0.787715  
      80A      0.792684    81A      0.795227    82A      0.842092  
      83A      0.914776    84A      0.931631    85A      0.989840  
      86A      1.088985    87A      1.145513    88A      1.206603  
      89A      1.210146    90A      1.315110    91A      1.322799  
      92A      1.376757    93A      1.379384    94A      1.528337  
      95A      1.686130    96A      1.720603    97A      1.733437  
      98A      1.757871    99A      1.868927   100A      1.884661  
     101A      1.893155   102A      1.902208   103A      1.944183  
     104A      1.961383   105A      1.971646   106A      1.997704  
     107A      2.042523   108A      2.088997   109A      2.114785  
     110A      2.156197   111A      2.186659   112A      2.189338  
     113A      2.239319   114A      2.299335   115A      2.339579  
     116A      2.344479   117A      2.366374   118A      2.416722  
     119A      2.420751   120A      2.507920   121A      2.633893  
     122A      2.658951   123A      2.711591   124A      2.714783  
     125A      2.796009   126A      2.798248  

    Final Occupation by Irrep:
              A 
    DOCC [    28 ]

  @DF-RKS Final Energy:  -274.63018268556823

   => Energetics <=

    Nuclear Repulsion Energy =            329.9473617733989386
    One-Electron Energy =               -1022.3025613095228437
    Two-Electron Energy =                 450.3243825565739940
    DFT Exchange-Correlation Energy =     -32.5993657060183253
    Empirical Dispersion Energy =           0.0000000000000000
    VV10 Nonlocal Energy =                  0.0000000000000000
    Total Energy =                       -274.6301826855682293

Computation Completed

  //>>>>>>>>>>>>>>>>>>>>>>>>>>>>>>>>>>>//
  //                PBE0               //
  //<<<<<<<<<<<<<<<<<<<<<<<<<<<<<<<<<<<//

   => Loading Basis Set <=

    Name: DEF2-QZVP
    Role: ORBITAL
    Keyword: BASIS
    atoms 1-7  entry C          line   194 file /usr/share/psi4/basis/def2-qzvp.gbs 
    atoms 8-21 entry H          line    15 file /usr/share/psi4/basis/def2-qzvp.gbs 


         ---------------------------------------------------------
                                   SCF
               by Justin Turney, Rob Parrish, Andy Simmonett
                          and Daniel G. A. Smith
                              RKS Reference
                        4 Threads,   3814 MiB Core
         ---------------------------------------------------------

  ==> Geometry <==

    Molecular point group: c1
    Full point group: C1

    Geometry (in Angstrom), charge = 0, multiplicity = 1:

       Center              X                  Y                   Z               Mass       
    ------------   -----------------  -----------------  -----------------  -----------------
         C           -1.023435635704     0.000904841796    -0.318964037603    12.000000000000
         C           -0.301650472504     1.251206929996     0.175715658497    12.000000000000
         C           -0.301629316404    -1.252196466204     0.168549633097    12.000000000000
         C            1.171760553796     1.257021910296    -0.209514567003    12.000000000000
         C            1.171779628196    -1.255781838504    -0.216712663003    12.000000000000
         C            1.878399114996    -0.000780574004     0.277750936197    12.000000000000
         C           -2.486450252504    -0.000284635304     0.091891609697    12.000000000000
         H           -0.975606253704     0.004049441096    -1.417884395903     1.007825032230
         H           -0.390977119604     1.297669528396     1.269837163597     1.007825032230
         H           -0.800019535204     2.145942289296    -0.212497560003     1.007825032230
         H           -0.799986057304    -2.144704082104    -0.224774398903     1.007825032230
         H           -0.390949791004    -1.304919461604     1.262387446997     1.007825032230
         H            1.663576110296     2.149236601896     0.189965273697     1.007825032230
         H            1.258214336996     1.318016592096    -1.301848231403     1.007825032230
         H            1.258232425896    -1.310515181804    -1.309378049603     1.007825032230
         H            1.663610270696    -2.150263011304     0.177647442397     1.007825032230
         H            2.923875167896     0.000152708096    -0.045429338803     1.007825032230
         H            1.891472496596    -0.003923876304     1.375191564497     1.007825032230
         H           -2.582573689104    -0.003334740004     1.182384826397     1.007825032230
         H           -3.007031895904     0.884678674696    -0.284086356603     1.007825032230
         H           -3.006985323504    -0.883159098204    -0.289028943303     1.007825032230

  Running in c1 symmetry.

  Rotational constants: A =      0.14174  B =      0.07358  C =      0.05347 [cm^-1]
  Rotational constants: A =   4249.11816  B =   2205.72964  C =   1602.93611 [MHz]
  Nuclear repulsion =  329.947361773398939

  Charge       = 0
  Multiplicity = 1
  Electrons    = 56
  Nalpha       = 28
  Nbeta        = 28

  ==> Algorithm <==

  SCF Algorithm Type is DF.
  DIIS enabled.
  MOM disabled.
  Fractional occupation disabled.
  Guess Type is SAD.
  Energy threshold   = 1.00e-06
  Density threshold  = 1.00e-06
  Integral threshold = 0.00e+00

  ==> Primary Basis <==

  Basis Set: DEF2-QZVP
    Blend: DEF2-QZVP
    Number of shells: 259
    Number of basis function: 819
    Number of Cartesian functions: 994
    Spherical Harmonics?: true
    Max angular momentum: 4

  ==> DFT Potential <==

   => Composite Functional: PBE0 <= 

    PBE0 Hyb-GGA Exchange-Correlation Functional

    C. Adamo and V. Barone, J. Chem. Phys. 110, 6158 (1999)
    M. Ernzerhof and G. E. Scuseria, J. Chem. Phys. 110, 5029 (1999)

    Deriv               =              1
    GGA                 =           TRUE
    Meta                =          FALSE

    Exchange Hybrid     =           TRUE
    MP2 Hybrid          =          FALSE

   => Exchange Functionals <=

    0.7500   Perdew, Burke & Ernzerhof

   => Exact (HF) Exchange <=

    0.2500               HF 

   => Correlation Functionals <=

    1.0000   Perdew, Burke & Ernzerhof

   => Molecular Quadrature <=

    Radial Scheme          =       TREUTLER
    Pruning Scheme         =           FLAT
    Nuclear Scheme         =       TREUTLER

    BS radius alpha        =              1
    Pruning alpha          =              1
    Radial Points          =             75
    Spherical Points       =            302
    Total Points           =         474041
    Total Blocks           =           3470
    Max Points             =            256
    Max Functions          =            718

   => Loading Basis Set <=

    Name: (DEF2-QZVP AUX)
    Role: JKFIT
    Keyword: DF_BASIS_SCF
    atoms 1-7  entry C          line   203 file /usr/share/psi4/basis/def2-qzvp-jkfit.gbs 
    atoms 8-21 entry H          line    23 file /usr/share/psi4/basis/def2-qzvp-jkfit.gbs 


  Computing basis projection from DEF2-SV(P) to DEF2-QZVP

  ==> Pre-Iterations <==

   -------------------------------------------------------
    Irrep   Nso     Nmo     Nalpha   Nbeta   Ndocc  Nsocc
   -------------------------------------------------------
     A        819     819       0       0       0       0
   -------------------------------------------------------
    Total     819     819      28      28      28       0
   -------------------------------------------------------

  ==> Integral Setup <==

  ==> DiskDFJK: Density-Fitted J/K Matrices <==

    J tasked:                  Yes
    K tasked:                  Yes
    wK tasked:                  No
    OpenMP threads:              4
    Integrals threads:           4
    Memory [MiB]:             1815
    Algorithm:                Disk
    Integral Cache:           NONE
    Schwarz Cutoff:          1E-12
    Fitting Condition:       1E-10

   => Auxiliary Basis Set <=

  Basis Set: (DEF2-QZVP AUX)
    Blend: DEF2-QZVP-JKFIT
    Number of shells: 259
    Number of basis function: 777
    Number of Cartesian functions: 903
    Spherical Harmonics?: true
    Max angular momentum: 4

  Cached 16.7% of DFT collocation blocks in 1.095 [GiB].

  Minimum eigenvalue in the overlap matrix is 8.7467288160E-06.
  Using Symmetric Orthogonalization.

  SCF Guess: Orbitals guess was supplied from a previous computation.

  ==> Iterations <==

                           Total Energy        Delta E     RMS |[F,P]|

   @DF-RKS iter   0:  -274.74442955022869   -2.74744e+02   3.68590e-03 
   @DF-RKS iter   1:  -274.96617296662043   -2.21743e-01   5.63608e-05 DIIS
   @DF-RKS iter   2:  -274.96615264402311    2.03226e-05   5.38655e-05 DIIS
   @DF-RKS iter   3:  -274.96710223019920   -9.49586e-04   1.18624e-05 DIIS
   @DF-RKS iter   4:  -274.96714419307978   -4.19629e-05   3.55688e-06 DIIS
   @DF-RKS iter   5:  -274.96714798867208   -3.79559e-06   5.40986e-07 DIIS
   @DF-RKS iter   6:  -274.96714807488479   -8.62127e-08   9.91645e-08 DIIS
  Energy and wave function converged.


  ==> Post-Iterations <==

    Orbital Energies [Eh]
    ---------------------

    Doubly Occupied:                                                      

       1A    -10.219332     2A    -10.211742     3A    -10.211638  
       4A    -10.211317     5A    -10.210356     6A    -10.210349  
       7A    -10.204831     8A     -0.860378     9A     -0.785913  
      10A     -0.760718    11A     -0.692150    12A     -0.624197  
      13A     -0.598984    14A     -0.564567    15A     -0.487660  
      16A     -0.459763    17A     -0.450633    18A     -0.446496  
      19A     -0.423742    20A     -0.393415    21A     -0.385816  
      22A     -0.375706    23A     -0.359367    24A     -0.346924  
      25A     -0.337087    26A     -0.320347    27A     -0.305900  
      28A     -0.301486  

    Virtual:                                                              

      29A      0.031577    30A      0.038422    31A      0.042692  
      32A      0.050398    33A      0.074211    34A      0.082952  
      35A      0.084091    36A      0.088687    37A      0.092859  
      38A      0.103875    39A      0.112352    40A      0.113988  
      41A      0.126907    42A      0.127159    43A      0.144836  
      44A      0.149604    45A      0.156034    46A      0.170388  
      47A      0.186376    48A      0.193569    49A      0.197085  
      50A      0.202912    51A      0.207147    52A      0.218369  
      53A      0.222289    54A      0.239180    55A      0.250373  
      56A      0.260418    57A      0.261569    58A      0.268138  
      59A      0.275450    60A      0.292185    61A      0.292443  
      62A      0.305986    63A      0.310332    64A      0.313732  
      65A      0.322967    66A      0.324223    67A      0.329184  
      68A      0.329468    69A      0.339669    70A      0.344731  
      71A      0.347577    72A      0.348419    73A      0.352195  
      74A      0.360975    75A      0.370880    76A      0.380113  
      77A      0.382649    78A      0.384756    79A      0.386305  
      80A      0.400540    81A      0.406562    82A      0.415179  
      83A      0.478598    84A      0.500447    85A      0.510456  
      86A      0.528554    87A      0.533078    88A      0.551558  
      89A      0.552165    90A      0.556347    91A      0.559969  
      92A      0.574145    93A      0.579680    94A      0.588342  
      95A      0.601072    96A      0.604998    97A      0.619228  
      98A      0.624088    99A      0.624557   100A      0.631320  
     101A      0.636124   102A      0.645132   103A      0.652906  
     104A      0.658368   105A      0.660210   106A      0.685045  
     107A      0.698174   108A      0.733652   109A      0.756314  
     110A      0.771377   111A      0.787609   112A      0.789732  
     113A      0.812261   114A      0.813078   115A      0.822607  
     116A      0.827647   117A      0.828724   118A      0.836335  
     119A      0.838050   120A      0.843816   121A      0.844523  
     122A      0.853188   123A      0.854756   124A      0.859076  
     125A      0.873996   126A      0.878419   127A      0.880337  
     128A      0.892899   129A      0.895725   130A      0.897311  
     131A      0.904001   132A      0.916645   133A      0.930051  
     134A      0.935828   135A      0.940209   136A      0.953797  
     137A      0.955860   138A      0.975949   139A      0.977543  
     140A      0.990524   141A      1.007868   142A      1.008901  
     143A      1.014495   144A      1.021701   145A      1.041555  
     146A      1.041703   147A      1.076493   148A      1.078255  
     149A      1.087800   150A      1.093196   151A      1.104795  
     152A      1.116860   153A      1.123105   154A      1.133674  
     155A      1.135475   156A      1.163191   157A      1.166476  
     158A      1.170595   159A      1.182163   160A      1.186989  
     161A      1.198208   162A      1.218637   163A      1.225782  
     164A      1.238989   165A      1.242852   166A      1.258072  
     167A      1.286160   168A      1.300209   169A      1.318377  
     170A      1.336972   171A      1.341639   172A      1.347936  
     173A      1.361491   174A      1.377758   175A      1.402461  
     176A      1.414032   177A      1.433509   178A      1.442730  
     179A      1.444657   180A      1.452940   181A      1.459849  
     182A      1.475641   183A      1.482871   184A      1.496338  
     185A      1.509888   186A      1.521060   187A      1.541117  
     188A      1.543459   189A      1.551181   190A      1.576613  
     191A      1.580985   192A      1.585188   193A      1.598481  
     194A      1.606576   195A      1.629454   196A      1.635180  
     197A      1.661620   198A      1.697757   199A      1.698526  
     200A      1.734924   201A      1.736053   202A      1.751828  
     203A      1.772137   204A      1.774732   205A      1.790407  
     206A      1.795162   207A      1.821799   208A      1.834340  
     209A      1.849426   210A      1.875402   211A      1.896653  
     212A      1.907116   213A      1.925361   214A      1.943914  
     215A      1.953047   216A      1.955196   217A      1.973715  
     218A      1.979784   219A      1.981423   220A      1.987001  
     221A      2.009310   222A      2.009567   223A      2.018423  
     224A      2.023259   225A      2.048817   226A      2.053037  
     227A      2.063696   228A      2.064028   229A      2.081762  
     230A      2.085939   231A      2.086475   232A      2.104033  
     233A      2.106538   234A      2.125865   235A      2.142635  
     236A      2.145740   237A      2.156574   238A      2.164774  
     239A      2.173315   240A      2.191493   241A      2.191630  
     242A      2.200152   243A      2.217890   244A      2.233740  
     245A      2.234583   246A      2.237404   247A      2.237983  
     248A      2.244723   249A      2.269528   250A      2.271066  
     251A      2.282894   252A      2.292474   253A      2.296944  
     254A      2.308990   255A      2.322169   256A      2.326815  
     257A      2.328313   258A      2.344398   259A      2.347545  
     260A      2.358203   261A      2.361630   262A      2.363986  
     263A      2.398083   264A      2.405032   265A      2.433522  
     266A      2.438919   267A      2.454175   268A      2.470005  
     269A      2.488259   270A      2.500119   271A      2.501156  
     272A      2.514308   273A      2.514655   274A      2.529284  
     275A      2.531932   276A      2.535605   277A      2.577721  
     278A      2.582335   279A      2.582736   280A      2.584601  
     281A      2.607020   282A      2.618988   283A      2.630864  
     284A      2.631678   285A      2.643786   286A      2.652675  
     287A      2.654745   288A      2.663827   289A      2.691551  
     290A      2.692221   291A      2.696807   292A      2.704425  
     293A      2.725750   294A      2.732048   295A      2.738207  
     296A      2.742148   297A      2.769664   298A      2.786936  
     299A      2.809188   300A      2.817224   301A      2.817568  
     302A      2.826413   303A      2.844691   304A      2.850290  
     305A      2.874067   306A      2.875850   307A      2.881048  
     308A      2.888196   309A      2.916371   310A      2.919190  
     311A      2.919972   312A      2.928843   313A      2.934075  
     314A      2.941060   315A      2.944676   316A      2.960394  
     317A      2.967318   318A      2.971069   319A      2.989169  
     320A      2.996132   321A      3.004257   322A      3.013275  
     323A      3.016213   324A      3.024504   325A      3.038269  
     326A      3.049724   327A      3.060684   328A      3.073076  
     329A      3.083303   330A      3.087377   331A      3.093757  
     332A      3.099429   333A      3.112243   334A      3.126918  
     335A      3.127609   336A      3.157381   337A      3.180898  
     338A      3.193867   339A      3.207356   340A      3.211042  
     341A      3.234582   342A      3.235412   343A      3.254246  
     344A      3.261932   345A      3.293895   346A      3.301552  
     347A      3.323001   348A      3.341948   349A      3.346539  
     350A      3.346565   351A      3.364256   352A      3.377552  
     353A      3.385306   354A      3.387141   355A      3.406666  
     356A      3.410664   357A      3.428193   358A      3.442728  
     359A      3.451952   360A      3.484848   361A      3.502793  
     362A      3.514078   363A      3.521883   364A      3.542609  
     365A      3.556729   366A      3.563583   367A      3.586520  
     368A      3.618961   369A      3.639242   370A      3.654587  
     371A      3.662386   372A      3.669123   373A      3.687112  
     374A      3.689557   375A      3.711104   376A      3.731726  
     377A      3.741668   378A      3.743733   379A      3.762987  
     380A      3.785606   381A      3.798807   382A      3.812371  
     383A      3.825060   384A      3.830377   385A      3.844681  
     386A      3.845693   387A      3.878155   388A      3.882374  
     389A      3.896862   390A      3.925576   391A      3.935665  
     392A      3.949336   393A      3.954116   394A      3.978405  
     395A      3.984710   396A      3.989600   397A      4.002351  
     398A      4.007337   399A      4.032670   400A      4.033734  
     401A      4.054384   402A      4.061559   403A      4.069787  
     404A      4.078713   405A      4.134734   406A      4.191387  
     407A      4.195545   408A      4.214698   409A      4.244887  
     410A      4.249133   411A      4.270740   412A      4.274749  
     413A      4.335135   414A      4.411080   415A      4.411110  
     416A      4.437456   417A      4.535682   418A      4.546566  
     419A      4.633369   420A      4.673593   421A      4.795319  
     422A      4.826387   423A      4.836596   424A      4.860291  
     425A      4.883679   426A      4.885037   427A      4.915727  
     428A      4.984733   429A      5.087761   430A      5.095698  
     431A      5.147193   432A      5.148837   433A      5.168625  
     434A      5.189613   435A      5.205215   436A      5.252356  
     437A      5.266314   438A      5.386284   439A      5.397926  
     440A      5.419452   441A      5.480760   442A      5.483325  
     443A      5.516149   444A      5.518361   445A      5.535225  
     446A      5.542978   447A      5.557456   448A      5.590799  
     449A      5.654058   450A      5.663848   451A      5.684386  
     452A      5.700182   453A      5.705196   454A      5.733905  
     455A      5.751775   456A      5.762678   457A      5.763783  
     458A      5.781046   459A      5.796603   460A      5.816310  
     461A      5.818252   462A      5.829789   463A      5.838330  
     464A      5.841789   465A      5.849879   466A      5.857586  
     467A      5.892372   468A      5.893132   469A      5.904419  
     470A      5.904567   471A      5.923044   472A      5.944577  
     473A      5.959917   474A      5.961337   475A      5.971145  
     476A      5.971230   477A      5.984732   478A      6.001051  
     479A      6.024621   480A      6.046125   481A      6.057893  
     482A      6.068684   483A      6.074267   484A      6.086954  
     485A      6.088636   486A      6.095165   487A      6.101696  
     488A      6.119692   489A      6.126887   490A      6.131120  
     491A      6.132057   492A      6.141968   493A      6.160044  
     494A      6.171811   495A      6.192422   496A      6.196560  
     497A      6.207937   498A      6.214602   499A      6.231560  
     500A      6.236611   501A      6.244143   502A      6.246586  
     503A      6.273748   504A      6.285074   505A      6.286216  
     506A      6.298322   507A      6.311982   508A      6.318435  
     509A      6.333048   510A      6.338730   511A      6.347773  
     512A      6.351209   513A      6.355793   514A      6.363800  
     515A      6.371796   516A      6.381029   517A      6.405822  
     518A      6.413646   519A      6.423217   520A      6.425401  
     521A      6.442968   522A      6.447135   523A      6.474078  
     524A      6.475145   525A      6.482624   526A      6.485044  
     527A      6.485913   528A      6.513809   529A      6.529668  
     530A      6.535577   531A      6.539084   532A      6.553401  
     533A      6.567632   534A      6.576017   535A      6.590924  
     536A      6.637795   537A      6.650436   538A      6.658402  
     539A      6.659875   540A      6.671007   541A      6.679715  
     542A      6.682636   543A      6.719696   544A      6.722751  
     545A      6.728888   546A      6.752590   547A      6.775053  
     548A      6.791459   549A      6.797499   550A      6.807654  
     551A      6.809060   552A      6.828087   553A      6.844682  
     554A      6.854707   555A      6.863077   556A      6.884279  
     557A      6.885791   558A      6.898293   559A      6.908106  
     560A      6.918412   561A      6.937450   562A      6.954617  
     563A      6.964678   564A      6.994076   565A      6.995532  
     566A      6.999424   567A      7.011725   568A      7.051028  
     569A      7.055777   570A      7.060275   571A      7.084081  
     572A      7.093949   573A      7.100736   574A      7.107819  
     575A      7.135020   576A      7.138915   577A      7.148148  
     578A      7.171542   579A      7.189769   580A      7.214079  
     581A      7.227977   582A      7.248324   583A      7.261945  
     584A      7.270408   585A      7.281295   586A      7.314151  
     587A      7.323048   588A      7.343745   589A      7.366435  
     590A      7.374240   591A      7.390423   592A      7.406671  
     593A      7.445442   594A      7.451312   595A      7.462964  
     596A      7.468206   597A      7.473840   598A      7.491874  
     599A      7.509253   600A      7.514618   601A      7.528837  
     602A      7.537100   603A      7.557178   604A      7.579186  
     605A      7.594682   606A      7.600396   607A      7.604831  
     608A      7.628655   609A      7.632490   610A      7.644554  
     611A      7.672420   612A      7.696338   613A      7.698885  
     614A      7.702070   615A      7.709568   616A      7.734238  
     617A      7.739551   618A      7.750178   619A      7.753423  
     620A      7.759885   621A      7.777824   622A      7.798857  
     623A      7.799499   624A      7.809559   625A      7.819712  
     626A      7.846798   627A      7.854877   628A      7.858380  
     629A      7.863272   630A      7.872870   631A      7.876301  
     632A      7.918110   633A      7.923631   634A      7.935949  
     635A      7.938305   636A      7.950106   637A      7.951063  
     638A      7.963217   639A      7.972193   640A      7.987650  
     641A      7.991267   642A      8.009965   643A      8.029545  
     644A      8.033498   645A      8.039074   646A      8.047092  
     647A      8.050832   648A      8.070892   649A      8.087028  
     650A      8.105016   651A      8.116703   652A      8.121845  
     653A      8.131121   654A      8.156933   655A      8.158709  
     656A      8.161795   657A      8.163450   658A      8.186733  
     659A      8.216553   660A      8.228346   661A      8.250136  
     662A      8.262001   663A      8.264834   664A      8.277925  
     665A      8.288883   666A      8.304131   667A      8.317254  
     668A      8.317934   669A      8.367037   670A      8.367256  
     671A      8.376629   672A      8.405554   673A      8.414236  
     674A      8.446825   675A      8.456798   676A      8.472894  
     677A      8.473550   678A      8.495063   679A      8.499785  
     680A      8.515252   681A      8.521396   682A      8.538107  
     683A      8.545892   684A      8.549865   685A      8.563116  
     686A      8.566354   687A      8.579887   688A      8.583589  
     689A      8.587616   690A      8.590736   691A      8.609965  
     692A      8.625206   693A      8.631142   694A      8.647510  
     695A      8.647877   696A      8.663350   697A      8.679875  
     698A      8.687864   699A      8.696549   700A      8.710559  
     701A      8.712589   702A      8.741553   703A      8.745412  
     704A      8.754657   705A      8.783012   706A      8.801635  
     707A      8.814867   708A      8.832911   709A      8.838246  
     710A      8.844486   711A      8.855243   712A      8.868983  
     713A      8.894948   714A      8.934696   715A      8.971483  
     716A      8.972469   717A      8.988869   718A      8.997189  
     719A      9.004940   720A      9.035683   721A      9.038307  
     722A      9.051536   723A      9.087400   724A      9.104443  
     725A      9.118499   726A      9.142528   727A      9.146094  
     728A      9.161621   729A      9.164730   730A      9.201019  
     731A      9.203960   732A      9.224540   733A      9.231810  
     734A      9.245298   735A      9.276101   736A      9.287062  
     737A      9.324392   738A      9.344862   739A      9.350621  
     740A      9.374286   741A      9.425128   742A      9.485382  
     743A      9.520023   744A      9.528395   745A      9.658234  
     746A      9.675964   747A      9.685604   748A      9.699521  
     749A      9.719074   750A      9.727442   751A      9.737886  
     752A      9.777643   753A      9.779758   754A      9.801544  
     755A      9.808989   756A      9.836854   757A      9.846245  
     758A      9.865787   759A      9.898248   760A      9.913577  
     761A      9.934229   762A      9.960433   763A      9.978829  
     764A      9.983889   765A     10.024454   766A     10.059054  
     767A     10.083313   768A     10.088816   769A     10.130470  
     770A     10.131246   771A     10.164036   772A     10.186807  
     773A     10.212979   774A     10.238358   775A     10.252423  
     776A     10.261728   777A     10.273164   778A     10.277345  
     779A     10.292664   780A     10.340842   781A     10.349271  
     782A     10.359864   783A     10.393590   784A     10.430157  
     785A     10.458932   786A     10.468085   787A     10.542301  
     788A     10.626579   789A     10.681038   790A     10.727576  
     791A     10.742157   792A     12.180388   793A     12.300504  
     794A     12.393537   795A     12.466011   796A     12.486366  
     797A     12.499568   798A     12.545893   799A     13.049773  
     800A     13.147180   801A     13.198509   802A     13.210384  
     803A     13.222480   804A     13.271844   805A     13.348642  
     806A     29.078698   807A     29.158138   808A     29.175199  
     809A     29.204704   810A     29.217557   811A     29.218076  
     812A     29.293789   813A    148.314128   814A    148.385965  
     815A    148.403002   816A    148.464513   817A    148.483705  
     818A    148.514558   819A    148.559060  

    Final Occupation by Irrep:
              A 
    DOCC [    28 ]

  @DF-RKS Final Energy:  -274.96714807488479

   => Energetics <=

    Nuclear Repulsion Energy =            329.9473617733989386
    One-Electron Energy =               -1022.9841457495124359
    Two-Electron Energy =                 450.7253685263953003
    DFT Exchange-Correlation Energy =     -32.6557326251666069
    Empirical Dispersion Energy =           0.0000000000000000
    VV10 Nonlocal Energy =                  0.0000000000000000
    Total Energy =                       -274.9671480748847898

Computation Completed


Properties will be evaluated at   0.000000,   0.000000,   0.000000 [a0]

Properties computed using the SCF density matrix

  Nuclear Dipole Moment: [e a0]
     X:    -1.2142      Y:    -0.0010      Z:     0.3492

  Electronic Dipole Moment: [e a0]
     X:     1.2518      Y:     0.0011      Z:    -0.3826

  Dipole Moment: [e a0]
     X:     0.0376      Y:     0.0001      Z:    -0.0334     Total:     0.0503

  Dipole Moment: [D]
     X:     0.0955      Y:     0.0002      Z:    -0.0848     Total:     0.1278


*** tstop() called on lenovo at Tue Jan 18 21:47:24 2022
Module time:
	user time   =     514.63 seconds =       8.58 minutes
	system time =      13.79 seconds =       0.23 minutes
	total time  =        151 seconds =       2.52 minutes
Total time:
	user time   =     514.63 seconds =       8.58 minutes
	system time =      13.79 seconds =       0.23 minutes
	total time  =        151 seconds =       2.52 minutes

    Psi4 stopped on: Tuesday, 18 January 2022 09:47PM
    Psi4 wall time for execution: 0:02:31.55

*** Psi4 exiting successfully. Buy a developer a beer!
