
    -----------------------------------------------------------------------
          Psi4: An Open-Source Ab Initio Electronic Structure Package
                               Psi4 1.3.2 release

                         Git: Rev {} zzzzzzz 


    R. M. Parrish, L. A. Burns, D. G. A. Smith, A. C. Simmonett,
    A. E. DePrince III, E. G. Hohenstein, U. Bozkaya, A. Yu. Sokolov,
    R. Di Remigio, R. M. Richard, J. F. Gonthier, A. M. James,
    H. R. McAlexander, A. Kumar, M. Saitow, X. Wang, B. P. Pritchard,
    P. Verma, H. F. Schaefer III, K. Patkowski, R. A. King, E. F. Valeev,
    F. A. Evangelista, J. M. Turney, T. D. Crawford, and C. D. Sherrill,
    J. Chem. Theory Comput. 13(7) pp 3185--3197 (2017).
    (doi: 10.1021/acs.jctc.7b00174)


                         Additional Contributions by
    P. Kraus, H. Kruse, M. H. Lechner, M. C. Schieber, R. A. Shaw,
    A. Alenaizan, R. Galvelis, Z. L. Glick, S. Lehtola, and J. P. Misiewicz

    -----------------------------------------------------------------------


    Psi4 started on: Saturday, 10 July 2021 02:26PM

    Process ID: 1464498
    Host:       thinkpad
    PSIDATADIR: /usr/share/psi4
    Memory:     500.0 MiB
    Threads:    4
    
  ==> Input File <==

--------------------------------------------------------------------------
# PBE0/def2-QZVP calculation on methylcyclohexane conformer #2 

memory 4 gb

molecule {
	    C     1.1134865843   0.0000601954  -0.5089087087
	    C     0.2420390682  -1.2537944021  -0.6238873628
	    C     0.2419792809   1.2538864618  -0.6237263195
	    C    -0.9258572029  -1.2569882693   0.3558910830
	    C    -0.9259138945   1.2568971843   0.3560562668
	    C    -1.7733690349  -0.0000550116   0.2075092045
	    C     1.9635709761  -0.0000025329   0.7567259476
	    H     1.8061401493   0.0001327039  -1.3591629729
	    H     0.8576836072  -2.1486699828  -0.4840861569
	    H    -0.1585149026  -1.3093741874  -1.6437935277
	    H    -0.1585790029   1.3095789194  -1.6436251076
	    H     0.8575801387   2.1487740172  -0.4838101972
	    H    -0.5514675761  -1.3224818821   1.3841297174
	    H    -1.5391270338  -2.1494848733   0.1983433729
	    H    -1.5392235832   2.1493868985   0.1986268789
	    H    -0.5515253450   1.3222722530   1.3843032168
	    H    -2.2443701954  -0.0000005041  -0.7841454961
	    H    -2.5878224306  -0.0001216243   0.9383495019
	    H     2.6072342236  -0.8831213151   0.7928829721
	    H     2.6071600769   0.8831643837   0.7930175612
	    H     1.3576335979  -0.0000979747   1.6655635342
}

# It is beneficial to initialize larger-basis calculations with
# a small reasonable basis; use def2-SV(P) for this purpose
set basis_guess def2-SV(P)
set basis def2-QZVP
energy('pbe0')
--------------------------------------------------------------------------

  Memory set to   3.725 GiB by Python driver.

*** tstart() called on thinkpad
*** at Sat Jul 10 14:26:34 2021


  //>>>>>>>>>>>>>>>>>>>>>>>>>>>>>>>>>>>//
  //    Guess SCF, DEF2-SV(P) Basis    //
  //<<<<<<<<<<<<<<<<<<<<<<<<<<<<<<<<<<<//

   => Loading Basis Set <=

    Name: DEF2-SV(P)
    Role: ORBITAL
    Keyword: BASIS
    atoms 1-7  entry C          line    88 file /usr/share/psi4/basis/def2-sv_p_.gbs 
    atoms 8-21 entry H          line    15 file /usr/share/psi4/basis/def2-sv_p_.gbs 


         ---------------------------------------------------------
                           SCF Castup computation                  
         ---------------------------------------------------------
                                   SCF
               by Justin Turney, Rob Parrish, Andy Simmonett
                          and Daniel G. A. Smith
                              RKS Reference
                        4 Threads,   3814 MiB Core
         ---------------------------------------------------------

  ==> Geometry <==

    Molecular point group: c1
    Full point group: C1

    Geometry (in Angstrom), charge = 0, multiplicity = 1:

       Center              X                  Y                   Z               Mass       
    ------------   -----------------  -----------------  -----------------  -----------------
         C            1.113486584316     0.000060195387    -0.508908708712    12.000000000000
         C            0.242039068216    -1.253794402113    -0.623887362812    12.000000000000
         C            0.241979280916     1.253886461787    -0.623726319512    12.000000000000
         C           -0.925857202884    -1.256988269313     0.355891082988    12.000000000000
         C           -0.925913894484     1.256897184287     0.356056266788    12.000000000000
         C           -1.773369034884    -0.000055011613     0.207509204488    12.000000000000
         C            1.963570976116    -0.000002532913     0.756725947588    12.000000000000
         H            1.806140149316     0.000132703887    -1.359162972912     1.007825032230
         H            0.857683607216    -2.148669982813    -0.484086156912     1.007825032230
         H           -0.158514902584    -1.309374187413    -1.643793527712     1.007825032230
         H           -0.158579002884     1.309578919387    -1.643625107612     1.007825032230
         H            0.857580138716     2.148774017187    -0.483810197212     1.007825032230
         H           -0.551467576084    -1.322481882113     1.384129717388     1.007825032230
         H           -1.539127033784    -2.149484873313     0.198343372888     1.007825032230
         H           -1.539223583184     2.149386898487     0.198626878888     1.007825032230
         H           -0.551525344984     1.322272252987     1.384303216788     1.007825032230
         H           -2.244370195384    -0.000000504113    -0.784145496112     1.007825032230
         H           -2.587822430584    -0.000121624313     0.938349501888     1.007825032230
         H            2.607234223616    -0.883121315113     0.792882972088     1.007825032230
         H            2.607160076916     0.883164383687     0.793017561188     1.007825032230
         H            1.357633597916    -0.000097974713     1.665563534188     1.007825032230

  Running in c1 symmetry.

  Rotational constants: A =      0.11801  B =      0.08487  C =      0.06449 [cm^-1]
  Rotational constants: A =   3537.89232  B =   2544.37938  C =   1933.21573 [MHz]
  Nuclear repulsion =  333.887771863626710

  Charge       = 0
  Multiplicity = 1
  Electrons    = 56
  Nalpha       = 28
  Nbeta        = 28

  ==> Algorithm <==

  SCF Algorithm Type is DF.
  DIIS enabled.
  MOM disabled.
  Fractional occupation disabled.
  Guess Type is SAD.
  Energy threshold   = 1.00e-06
  Density threshold  = 1.00e-06
  Integral threshold = 0.00e+00

  ==> Primary Basis <==

  Basis Set: DEF2-SV(P)
    Blend: DEF2-SV(P)
    Number of shells: 70
    Number of basis function: 126
    Number of Cartesian functions: 133
    Spherical Harmonics?: true
    Max angular momentum: 2

  ==> DFT Potential <==

   => Composite Functional: PBE0 <= 

    PBE0 Hyb-GGA Exchange-Correlation Functional

    C. Adamo and V. Barone, J. Chem. Phys. 110, 6158 (1999)
    M. Ernzerhof and G. E. Scuseria, J. Chem. Phys. 110, 5029 (1999)

    Deriv               =              1
    GGA                 =           TRUE
    Meta                =          FALSE

    Exchange Hybrid     =           TRUE
    MP2 Hybrid          =          FALSE

   => Exchange Functionals <=

    0.7500   Perdew, Burke & Ernzerhof

   => Exact (HF) Exchange <=

    0.2500               HF 

   => Correlation Functionals <=

    1.0000   Perdew, Burke & Ernzerhof

   => Molecular Quadrature <=

    Radial Scheme          =       TREUTLER
    Pruning Scheme         =           FLAT
    Nuclear Scheme         =       TREUTLER

    BS radius alpha        =              1
    Pruning alpha          =              1
    Radial Points          =             75
    Spherical Points       =            302
    Total Points           =         469460
    Total Blocks           =           3430
    Max Points             =            256
    Max Functions          =            125

   => Loading Basis Set <=

    Name: (DEF2-SV(P) AUX)
    Role: JKFIT
    Keyword: DF_BASIS_SCF
    atoms 1-7  entry C          line   203 file /usr/share/psi4/basis/def2-sv_p_-jkfit.gbs 
    atoms 8-21 entry H          line    23 file /usr/share/psi4/basis/def2-sv_p_-jkfit.gbs 

  ==> Pre-Iterations <==

   -------------------------------------------------------
    Irrep   Nso     Nmo     Nalpha   Nbeta   Ndocc  Nsocc
   -------------------------------------------------------
     A        126     126       0       0       0       0
   -------------------------------------------------------
    Total     126     126      28      28      28       0
   -------------------------------------------------------

  ==> Integral Setup <==

  ==> DiskDFJK: Density-Fitted J/K Matrices <==

    J tasked:                  Yes
    K tasked:                  Yes
    wK tasked:                  No
    OpenMP threads:              4
    Integrals threads:           4
    Memory [MiB]:             1434
    Algorithm:                Core
    Integral Cache:           NONE
    Schwarz Cutoff:          1E-12
    Fitting Condition:       1E-10

   => Auxiliary Basis Set <=

  Basis Set: (DEF2-SV(P) AUX)
    Blend: DEF2-SV_P_-JKFIT
    Number of shells: 259
    Number of basis function: 777
    Number of Cartesian functions: 903
    Spherical Harmonics?: true
    Max angular momentum: 4

  Cached 100.0% of DFT collocation blocks in 1.393 [GiB].

  Minimum eigenvalue in the overlap matrix is 1.5293595515E-03.
  Using Symmetric Orthogonalization.

  SCF Guess: Superposition of Atomic Densities via on-the-fly atomic UHF.

  ==> Iterations <==

                           Total Energy        Delta E     RMS |[F,P]|

   @DF-RKS iter SAD:  -274.33832918596755   -2.74338e+02   0.00000e+00 
   @DF-RKS iter   1:  -274.03300409662131    3.05325e-01   8.19969e-03 DIIS
   @DF-RKS iter   2:  -273.68050494898273    3.52499e-01   1.04837e-02 DIIS
   @DF-RKS iter   3:  -274.62213149468693   -9.41627e-01   8.05415e-04 DIIS
   @DF-RKS iter   4:  -274.62635540231474   -4.22391e-03   2.87034e-04 DIIS
   @DF-RKS iter   5:  -274.62693538156520   -5.79979e-04   8.88999e-05 DIIS
   @DF-RKS iter   6:  -274.62699672259572   -6.13410e-05   8.83967e-06 DIIS
   @DF-RKS iter   7:  -274.62699732708950   -6.04494e-07   3.48780e-06 DIIS
   @DF-RKS iter   8:  -274.62699742452531   -9.74358e-08   7.01836e-07 DIIS
  Energy and wave function converged.


  ==> Post-Iterations <==

    Orbital Energies [Eh]
    ---------------------

    Doubly Occupied:                                                      

       1A    -10.225731     2A    -10.215874     3A    -10.215729  
       4A    -10.215674     5A    -10.215221     6A    -10.215202  
       7A    -10.208936     8A     -0.854337     9A     -0.775434  
      10A     -0.754166    11A     -0.689619    12A     -0.617989  
      13A     -0.605618    14A     -0.539787    15A     -0.499985  
      16A     -0.460732    17A     -0.458223    18A     -0.439469  
      19A     -0.413802    20A     -0.412256    21A     -0.387284  
      22A     -0.370596    23A     -0.365287    24A     -0.348269  
      25A     -0.343304    26A     -0.316890    27A     -0.303440  
      28A     -0.303328  

    Virtual:                                                              

      29A      0.059601    30A      0.080710    31A      0.100199  
      32A      0.109241    33A      0.127000    34A      0.130886  
      35A      0.145357    36A      0.151617    37A      0.155054  
      38A      0.157833    39A      0.166568    40A      0.179391  
      41A      0.200658    42A      0.205946    43A      0.225349  
      44A      0.234107    45A      0.248803    46A      0.255169  
      47A      0.268914    48A      0.295119    49A      0.296152  
      50A      0.424399    51A      0.437124    52A      0.448045  
      53A      0.459841    54A      0.474870    55A      0.477428  
      56A      0.485055    57A      0.573723    58A      0.630809  
      59A      0.636953    60A      0.644438    61A      0.658173  
      62A      0.678977    63A      0.682320    64A      0.696818  
      65A      0.698293    66A      0.701094    67A      0.711713  
      68A      0.718786    69A      0.730738    70A      0.730917  
      71A      0.743583    72A      0.744546    73A      0.745571  
      74A      0.748214    75A      0.755576    76A      0.757812  
      77A      0.767256    78A      0.784846    79A      0.791461  
      80A      0.801438    81A      0.827246    82A      0.855834  
      83A      0.890475    84A      0.925480    85A      1.009554  
      86A      1.092796    87A      1.163137    88A      1.189443  
      89A      1.208032    90A      1.315251    91A      1.326972  
      92A      1.371083    93A      1.380518    94A      1.563305  
      95A      1.611483    96A      1.699428    97A      1.728599  
      98A      1.792032    99A      1.806757   100A      1.826285  
     101A      1.910144   102A      1.936860   103A      1.955035  
     104A      1.971688   105A      1.983968   106A      2.004377  
     107A      2.091278   108A      2.112391   109A      2.113423  
     110A      2.121144   111A      2.206542   112A      2.227033  
     113A      2.255856   114A      2.295427   115A      2.317940  
     116A      2.336148   117A      2.374497   118A      2.392167  
     119A      2.449110   120A      2.555388   121A      2.652114  
     122A      2.656582   123A      2.685917   124A      2.711286  
     125A      2.722815   126A      2.772035  

    Final Occupation by Irrep:
              A 
    DOCC [    28 ]

  @DF-RKS Final Energy:  -274.62699742452531

   => Energetics <=

    Nuclear Repulsion Energy =            333.8877718636267105
    One-Electron Energy =               -1030.2045944398439588
    Two-Electron Energy =                 454.2898605066015989
    DFT Exchange-Correlation Energy =     -32.6000353549097497
    Empirical Dispersion Energy =           0.0000000000000000
    VV10 Nonlocal Energy =                  0.0000000000000000
    Total Energy =                       -274.6269974245253707

Computation Completed

  //>>>>>>>>>>>>>>>>>>>>>>>>>>>>>>>>>>>//
  //                PBE0               //
  //<<<<<<<<<<<<<<<<<<<<<<<<<<<<<<<<<<<//

   => Loading Basis Set <=

    Name: DEF2-QZVP
    Role: ORBITAL
    Keyword: BASIS
    atoms 1-7  entry C          line   194 file /usr/share/psi4/basis/def2-qzvp.gbs 
    atoms 8-21 entry H          line    15 file /usr/share/psi4/basis/def2-qzvp.gbs 


         ---------------------------------------------------------
                                   SCF
               by Justin Turney, Rob Parrish, Andy Simmonett
                          and Daniel G. A. Smith
                              RKS Reference
                        4 Threads,   3814 MiB Core
         ---------------------------------------------------------

  ==> Geometry <==

    Molecular point group: c1
    Full point group: C1

    Geometry (in Angstrom), charge = 0, multiplicity = 1:

       Center              X                  Y                   Z               Mass       
    ------------   -----------------  -----------------  -----------------  -----------------
         C            1.113486584316     0.000060195387    -0.508908708712    12.000000000000
         C            0.242039068216    -1.253794402113    -0.623887362812    12.000000000000
         C            0.241979280916     1.253886461787    -0.623726319512    12.000000000000
         C           -0.925857202884    -1.256988269313     0.355891082988    12.000000000000
         C           -0.925913894484     1.256897184287     0.356056266788    12.000000000000
         C           -1.773369034884    -0.000055011613     0.207509204488    12.000000000000
         C            1.963570976116    -0.000002532913     0.756725947588    12.000000000000
         H            1.806140149316     0.000132703887    -1.359162972912     1.007825032230
         H            0.857683607216    -2.148669982813    -0.484086156912     1.007825032230
         H           -0.158514902584    -1.309374187413    -1.643793527712     1.007825032230
         H           -0.158579002884     1.309578919387    -1.643625107612     1.007825032230
         H            0.857580138716     2.148774017187    -0.483810197212     1.007825032230
         H           -0.551467576084    -1.322481882113     1.384129717388     1.007825032230
         H           -1.539127033784    -2.149484873313     0.198343372888     1.007825032230
         H           -1.539223583184     2.149386898487     0.198626878888     1.007825032230
         H           -0.551525344984     1.322272252987     1.384303216788     1.007825032230
         H           -2.244370195384    -0.000000504113    -0.784145496112     1.007825032230
         H           -2.587822430584    -0.000121624313     0.938349501888     1.007825032230
         H            2.607234223616    -0.883121315113     0.792882972088     1.007825032230
         H            2.607160076916     0.883164383687     0.793017561188     1.007825032230
         H            1.357633597916    -0.000097974713     1.665563534188     1.007825032230

  Running in c1 symmetry.

  Rotational constants: A =      0.11801  B =      0.08487  C =      0.06449 [cm^-1]
  Rotational constants: A =   3537.89232  B =   2544.37938  C =   1933.21573 [MHz]
  Nuclear repulsion =  333.887771863626710

  Charge       = 0
  Multiplicity = 1
  Electrons    = 56
  Nalpha       = 28
  Nbeta        = 28

  ==> Algorithm <==

  SCF Algorithm Type is DF.
  DIIS enabled.
  MOM disabled.
  Fractional occupation disabled.
  Guess Type is SAD.
  Energy threshold   = 1.00e-06
  Density threshold  = 1.00e-06
  Integral threshold = 0.00e+00

  ==> Primary Basis <==

  Basis Set: DEF2-QZVP
    Blend: DEF2-QZVP
    Number of shells: 259
    Number of basis function: 819
    Number of Cartesian functions: 994
    Spherical Harmonics?: true
    Max angular momentum: 4

  ==> DFT Potential <==

   => Composite Functional: PBE0 <= 

    PBE0 Hyb-GGA Exchange-Correlation Functional

    C. Adamo and V. Barone, J. Chem. Phys. 110, 6158 (1999)
    M. Ernzerhof and G. E. Scuseria, J. Chem. Phys. 110, 5029 (1999)

    Deriv               =              1
    GGA                 =           TRUE
    Meta                =          FALSE

    Exchange Hybrid     =           TRUE
    MP2 Hybrid          =          FALSE

   => Exchange Functionals <=

    0.7500   Perdew, Burke & Ernzerhof

   => Exact (HF) Exchange <=

    0.2500               HF 

   => Correlation Functionals <=

    1.0000   Perdew, Burke & Ernzerhof

   => Molecular Quadrature <=

    Radial Scheme          =       TREUTLER
    Pruning Scheme         =           FLAT
    Nuclear Scheme         =       TREUTLER

    BS radius alpha        =              1
    Pruning alpha          =              1
    Radial Points          =             75
    Spherical Points       =            302
    Total Points           =         474032
    Total Blocks           =           3453
    Max Points             =            256
    Max Functions          =            730

   => Loading Basis Set <=

    Name: (DEF2-QZVP AUX)
    Role: JKFIT
    Keyword: DF_BASIS_SCF
    atoms 1-7  entry C          line   203 file /usr/share/psi4/basis/def2-qzvp-jkfit.gbs 
    atoms 8-21 entry H          line    23 file /usr/share/psi4/basis/def2-qzvp-jkfit.gbs 


  Computing basis projection from DEF2-SV(P) to DEF2-QZVP

  ==> Pre-Iterations <==

   -------------------------------------------------------
    Irrep   Nso     Nmo     Nalpha   Nbeta   Ndocc  Nsocc
   -------------------------------------------------------
     A        819     819       0       0       0       0
   -------------------------------------------------------
    Total     819     819      28      28      28       0
   -------------------------------------------------------

  ==> Integral Setup <==

  ==> DiskDFJK: Density-Fitted J/K Matrices <==

    J tasked:                  Yes
    K tasked:                  Yes
    wK tasked:                  No
    OpenMP threads:              4
    Integrals threads:           4
    Memory [MiB]:             1852
    Algorithm:                Disk
    Integral Cache:           NONE
    Schwarz Cutoff:          1E-12
    Fitting Condition:       1E-10

   => Auxiliary Basis Set <=

  Basis Set: (DEF2-QZVP AUX)
    Blend: DEF2-QZVP-JKFIT
    Number of shells: 259
    Number of basis function: 777
    Number of Cartesian functions: 903
    Spherical Harmonics?: true
    Max angular momentum: 4

  Cached 16.7% of DFT collocation blocks in 1.092 [GiB].

  Minimum eigenvalue in the overlap matrix is 8.9037790925E-06.
  Using Symmetric Orthogonalization.

  SCF Guess: Orbitals guess was supplied from a previous computation.

  ==> Iterations <==

                           Total Energy        Delta E     RMS |[F,P]|

   @DF-RKS iter   0:  -274.74116389206279   -2.74741e+02   3.68568e-03 
   @DF-RKS iter   1:  -274.96279284681805   -2.21629e-01   5.67959e-05 DIIS
   @DF-RKS iter   2:  -274.96270285515982    8.99917e-05   5.63104e-05 DIIS
   @DF-RKS iter   3:  -274.96373310545289   -1.03025e-03   1.20157e-05 DIIS
   @DF-RKS iter   4:  -274.96377669866308   -4.35932e-05   2.98291e-06 DIIS
   @DF-RKS iter   5:  -274.96377927943979   -2.58078e-06   6.15839e-07 DIIS
   @DF-RKS iter   6:  -274.96377938996130   -1.10522e-07   1.25408e-07 DIIS
  Energy and wave function converged.


  ==> Post-Iterations <==

    Orbital Energies [Eh]
    ---------------------

    Doubly Occupied:                                                      

       1A    -10.219777     2A    -10.211136     3A    -10.210864  
       4A    -10.210742     5A    -10.210241     6A    -10.210233  
       7A    -10.204348     8A     -0.859568     9A     -0.781433  
      10A     -0.760116    11A     -0.695449    12A     -0.622629  
      13A     -0.609733    14A     -0.542258    15A     -0.498376  
      16A     -0.459079    17A     -0.458279    18A     -0.437585  
      19A     -0.411995    20A     -0.410185    21A     -0.384981  
      22A     -0.368504    23A     -0.363431    24A     -0.345994  
      25A     -0.341140    26A     -0.315183    27A     -0.301402  
      28A     -0.301276  

    Virtual:                                                              

      29A      0.024573    30A      0.038299    31A      0.048948  
      32A      0.054025    33A      0.074010    34A      0.076213  
      35A      0.078417    36A      0.088343    37A      0.092182  
      38A      0.103348    39A      0.115444    40A      0.117462  
      41A      0.134583    42A      0.135339    43A      0.143353  
      44A      0.163398    45A      0.163787    46A      0.179375  
      47A      0.181173    48A      0.188236    49A      0.194547  
      50A      0.204357    51A      0.210556    52A      0.219767  
      53A      0.224729    54A      0.229912    55A      0.232995  
      56A      0.249655    57A      0.263237    58A      0.270641  
      59A      0.285535    60A      0.294720    61A      0.303383  
      62A      0.305247    63A      0.305312    64A      0.312354  
      65A      0.317120    66A      0.318763    67A      0.329698  
      68A      0.337341    69A      0.338196    70A      0.340756  
      71A      0.352601    72A      0.353567    73A      0.356697  
      74A      0.365257    75A      0.377430    76A      0.384257  
      77A      0.385848    78A      0.391845    79A      0.391849  
      80A      0.399444    81A      0.403305    82A      0.409764  
      83A      0.466568    84A      0.487751    85A      0.513259  
      86A      0.527807    87A      0.538259    88A      0.544610  
      89A      0.557867    90A      0.567413    91A      0.571822  
      92A      0.580811    93A      0.581009    94A      0.594988  
      95A      0.600989    96A      0.606743    97A      0.616708  
      98A      0.622908    99A      0.629782   100A      0.631177  
     101A      0.635345   102A      0.638548   103A      0.649501  
     104A      0.656733   105A      0.677927   106A      0.689927  
     107A      0.708249   108A      0.747041   109A      0.765151  
     110A      0.784465   111A      0.785645   112A      0.796114  
     113A      0.802650   114A      0.812194   115A      0.819714  
     116A      0.820081   117A      0.822578   118A      0.832834  
     119A      0.837797   120A      0.846794   121A      0.852304  
     122A      0.857864   123A      0.860716   124A      0.874088  
     125A      0.875849   126A      0.880606   127A      0.889093  
     128A      0.889824   129A      0.900576   130A      0.906396  
     131A      0.908736   132A      0.927227   133A      0.928350  
     134A      0.943963   135A      0.955628   136A      0.959660  
     137A      0.964652   138A      0.978274   139A      0.993653  
     140A      0.994789   141A      0.997457   142A      1.004876  
     143A      1.011821   144A      1.021857   145A      1.022561  
     146A      1.040281   147A      1.067239   148A      1.072919  
     149A      1.076805   150A      1.103382   151A      1.106818  
     152A      1.124301   153A      1.151906   154A      1.157915  
     155A      1.166541   156A      1.174392   157A      1.182919  
     158A      1.184298   159A      1.189756   160A      1.203914  
     161A      1.207278   162A      1.227914   163A      1.242487  
     164A      1.243070   165A      1.259729   166A      1.270637  
     167A      1.278467   168A      1.316168   169A      1.321338  
     170A      1.344341   171A      1.349208   172A      1.358685  
     173A      1.367450   174A      1.379680   175A      1.396800  
     176A      1.400258   177A      1.425957   178A      1.435988  
     179A      1.451653   180A      1.456136   181A      1.456186  
     182A      1.487570   183A      1.489123   184A      1.498949  
     185A      1.500107   186A      1.508761   187A      1.531063  
     188A      1.540842   189A      1.547705   190A      1.577352  
     191A      1.579496   192A      1.598336   193A      1.599768  
     194A      1.621260   195A      1.650076   196A      1.660988  
     197A      1.684427   198A      1.699794   199A      1.710625  
     200A      1.748693   201A      1.752998   202A      1.761869  
     203A      1.767121   204A      1.770995   205A      1.788929  
     206A      1.813306   207A      1.821894   208A      1.851916  
     209A      1.853289   210A      1.890746   211A      1.906072  
     212A      1.907236   213A      1.927992   214A      1.942370  
     215A      1.950787   216A      1.959345   217A      1.982055  
     218A      1.983409   219A      1.987056   220A      1.993557  
     221A      2.011826   222A      2.013926   223A      2.028965  
     224A      2.030420   225A      2.037010   226A      2.053349  
     227A      2.069662   228A      2.078260   229A      2.083288  
     230A      2.092582   231A      2.109467   232A      2.113559  
     233A      2.118772   234A      2.121231   235A      2.149802  
     236A      2.150303   237A      2.157192   238A      2.164172  
     239A      2.179215   240A      2.208000   241A      2.216237  
     242A      2.216990   243A      2.219584   244A      2.231619  
     245A      2.233390   246A      2.241918   247A      2.253137  
     248A      2.265503   249A      2.275838   250A      2.278399  
     251A      2.282821   252A      2.288569   253A      2.294547  
     254A      2.310656   255A      2.330626   256A      2.332618  
     257A      2.345003   258A      2.348338   259A      2.359442  
     260A      2.360827   261A      2.390981   262A      2.394117  
     263A      2.395867   264A      2.399537   265A      2.429464  
     266A      2.442873   267A      2.449461   268A      2.457266  
     269A      2.485624   270A      2.488819   271A      2.499702  
     272A      2.508134   273A      2.510208   274A      2.537133  
     275A      2.563623   276A      2.569959   277A      2.582308  
     278A      2.597825   279A      2.598382   280A      2.603997  
     281A      2.612680   282A      2.632762   283A      2.639933  
     284A      2.652607   285A      2.661362   286A      2.661586  
     287A      2.664082   288A      2.676510   289A      2.677429  
     290A      2.691502   291A      2.698183   292A      2.699034  
     293A      2.720219   294A      2.722305   295A      2.728368  
     296A      2.743197   297A      2.745383   298A      2.763829  
     299A      2.777045   300A      2.799748   301A      2.803907  
     302A      2.834018   303A      2.856496   304A      2.858429  
     305A      2.873739   306A      2.881464   307A      2.887112  
     308A      2.891382   309A      2.896710   310A      2.915037  
     311A      2.922302   312A      2.922672   313A      2.935520  
     314A      2.941084   315A      2.953154   316A      2.967353  
     317A      2.973215   318A      2.978814   319A      2.985580  
     320A      3.004476   321A      3.009268   322A      3.012413  
     323A      3.024032   324A      3.038579   325A      3.055429  
     326A      3.056011   327A      3.076047   328A      3.084195  
     329A      3.088741   330A      3.103243   331A      3.103544  
     332A      3.117325   333A      3.125538   334A      3.139636  
     335A      3.167960   336A      3.172537   337A      3.192097  
     338A      3.206906   339A      3.214619   340A      3.233005  
     341A      3.239118   342A      3.244721   343A      3.247707  
     344A      3.267882   345A      3.286821   346A      3.301573  
     347A      3.303017   348A      3.357822   349A      3.371545  
     350A      3.375418   351A      3.377804   352A      3.389399  
     353A      3.391978   354A      3.409740   355A      3.422718  
     356A      3.439633   357A      3.447443   358A      3.450243  
     359A      3.456969   360A      3.485964   361A      3.500440  
     362A      3.516488   363A      3.530645   364A      3.558635  
     365A      3.561836   366A      3.564821   367A      3.583130  
     368A      3.611884   369A      3.617434   370A      3.636455  
     371A      3.652424   372A      3.668943   373A      3.669883  
     374A      3.681469   375A      3.690591   376A      3.706516  
     377A      3.736185   378A      3.743376   379A      3.746905  
     380A      3.783980   381A      3.802292   382A      3.813297  
     383A      3.823155   384A      3.828211   385A      3.852575  
     386A      3.869052   387A      3.874962   388A      3.915444  
     389A      3.918283   390A      3.924019   391A      3.927455  
     392A      3.939606   393A      3.951292   394A      3.977971  
     395A      3.982714   396A      3.991347   397A      4.005996  
     398A      4.018054   399A      4.032641   400A      4.035010  
     401A      4.053997   402A      4.067136   403A      4.086793  
     404A      4.092176   405A      4.178659   406A      4.192910  
     407A      4.194460   408A      4.234692   409A      4.238812  
     410A      4.267143   411A      4.280011   412A      4.301329  
     413A      4.383498   414A      4.459185   415A      4.499005  
     416A      4.511579   417A      4.548759   418A      4.596336  
     419A      4.684954   420A      4.704185   421A      4.781834  
     422A      4.820213   423A      4.843613   424A      4.882159  
     425A      4.892910   426A      4.895752   427A      4.934159  
     428A      4.949087   429A      4.969469   430A      5.093280  
     431A      5.129927   432A      5.130602   433A      5.158234  
     434A      5.212295   435A      5.230071   436A      5.290246  
     437A      5.351724   438A      5.373326   439A      5.402149  
     440A      5.441529   441A      5.464407   442A      5.502777  
     443A      5.531575   444A      5.534720   445A      5.553173  
     446A      5.560364   447A      5.563700   448A      5.583393  
     449A      5.622762   450A      5.633619   451A      5.654695  
     452A      5.669530   453A      5.712251   454A      5.747805  
     455A      5.755097   456A      5.772675   457A      5.787068  
     458A      5.792154   459A      5.793484   460A      5.800781  
     461A      5.825185   462A      5.826166   463A      5.836746  
     464A      5.859948   465A      5.862551   466A      5.862703  
     467A      5.882024   468A      5.885226   469A      5.898297  
     470A      5.910880   471A      5.920389   472A      5.925110  
     473A      5.942428   474A      5.951251   475A      5.982187  
     476A      5.994066   477A      6.006720   478A      6.018635  
     479A      6.031685   480A      6.047476   481A      6.064292  
     482A      6.066367   483A      6.074339   484A      6.079489  
     485A      6.093870   486A      6.094297   487A      6.101895  
     488A      6.111128   489A      6.126868   490A      6.128881  
     491A      6.138832   492A      6.140404   493A      6.147798  
     494A      6.170252   495A      6.181111   496A      6.187743  
     497A      6.192524   498A      6.218564   499A      6.231245  
     500A      6.241997   501A      6.260080   502A      6.263490  
     503A      6.278956   504A      6.294323   505A      6.302873  
     506A      6.304118   507A      6.315240   508A      6.318491  
     509A      6.338096   510A      6.348055   511A      6.350355  
     512A      6.358002   513A      6.373293   514A      6.378476  
     515A      6.390624   516A      6.395180   517A      6.399015  
     518A      6.400364   519A      6.415981   520A      6.431706  
     521A      6.442974   522A      6.457340   523A      6.462402  
     524A      6.473171   525A      6.495873   526A      6.512453  
     527A      6.516477   528A      6.519427   529A      6.530022  
     530A      6.540395   531A      6.552441   532A      6.565161  
     533A      6.581556   534A      6.585967   535A      6.594653  
     536A      6.609611   537A      6.616383   538A      6.635419  
     539A      6.640649   540A      6.663635   541A      6.684253  
     542A      6.706943   543A      6.711817   544A      6.723788  
     545A      6.734688   546A      6.758685   547A      6.786242  
     548A      6.786522   549A      6.802213   550A      6.810434  
     551A      6.820971   552A      6.828874   553A      6.829763  
     554A      6.846325   555A      6.851323   556A      6.871219  
     557A      6.884341   558A      6.887015   559A      6.910741  
     560A      6.926482   561A      6.928200   562A      6.967800  
     563A      6.981108   564A      6.985403   565A      6.993029  
     566A      7.009607   567A      7.028774   568A      7.033472  
     569A      7.059603   570A      7.067227   571A      7.083465  
     572A      7.097167   573A      7.099317   574A      7.124095  
     575A      7.129031   576A      7.146592   577A      7.148397  
     578A      7.197624   579A      7.199562   580A      7.203932  
     581A      7.231097   582A      7.244161   583A      7.253609  
     584A      7.267636   585A      7.289255   586A      7.314970  
     587A      7.323924   588A      7.328215   589A      7.349322  
     590A      7.374563   591A      7.378394   592A      7.415476  
     593A      7.416395   594A      7.422082   595A      7.445729  
     596A      7.457920   597A      7.473842   598A      7.499208  
     599A      7.512580   600A      7.521443   601A      7.531855  
     602A      7.550339   603A      7.552148   604A      7.569970  
     605A      7.596772   606A      7.604455   607A      7.610697  
     608A      7.633572   609A      7.638986   610A      7.649741  
     611A      7.664518   612A      7.694451   613A      7.702773  
     614A      7.715771   615A      7.724935   616A      7.732024  
     617A      7.742563   618A      7.752907   619A      7.762406  
     620A      7.772419   621A      7.773001   622A      7.792422  
     623A      7.806080   624A      7.825501   625A      7.838263  
     626A      7.849002   627A      7.853156   628A      7.857186  
     629A      7.861634   630A      7.869656   631A      7.895081  
     632A      7.903085   633A      7.906794   634A      7.919488  
     635A      7.935151   636A      7.940566   637A      7.951479  
     638A      7.965112   639A      7.967916   640A      8.002524  
     641A      8.005192   642A      8.015293   643A      8.027751  
     644A      8.046793   645A      8.055924   646A      8.063229  
     647A      8.071880   648A      8.082715   649A      8.105031  
     650A      8.108090   651A      8.111833   652A      8.125899  
     653A      8.145843   654A      8.155408   655A      8.165870  
     656A      8.177293   657A      8.184172   658A      8.196002  
     659A      8.219195   660A      8.228790   661A      8.247685  
     662A      8.250102   663A      8.265671   664A      8.284732  
     665A      8.292959   666A      8.314496   667A      8.321585  
     668A      8.339470   669A      8.359884   670A      8.377848  
     671A      8.387972   672A      8.397903   673A      8.425260  
     674A      8.438933   675A      8.465877   676A      8.488459  
     677A      8.500316   678A      8.500432   679A      8.512116  
     680A      8.523895   681A      8.529203   682A      8.541381  
     683A      8.561644   684A      8.564135   685A      8.587387  
     686A      8.587532   687A      8.592362   688A      8.606869  
     689A      8.609372   690A      8.613037   691A      8.619877  
     692A      8.641023   693A      8.659031   694A      8.660451  
     695A      8.671288   696A      8.675002   697A      8.692756  
     698A      8.695846   699A      8.704069   700A      8.714357  
     701A      8.731636   702A      8.744131   703A      8.755452  
     704A      8.759630   705A      8.773102   706A      8.796376  
     707A      8.799626   708A      8.812503   709A      8.827221  
     710A      8.858312   711A      8.860870   712A      8.864884  
     713A      8.876241   714A      8.881828   715A      8.900784  
     716A      8.974985   717A      8.981447   718A      8.982561  
     719A      8.999985   720A      9.018984   721A      9.034200  
     722A      9.072114   723A      9.078668   724A      9.078897  
     725A      9.102307   726A      9.120467   727A      9.125258  
     728A      9.162183   729A      9.170083   730A      9.210386  
     731A      9.212599   732A      9.231397   733A      9.235197  
     734A      9.243455   735A      9.301192   736A      9.317968  
     737A      9.323751   738A      9.336320   739A      9.346321  
     740A      9.395727   741A      9.409060   742A      9.452738  
     743A      9.470196   744A      9.541873   745A      9.622341  
     746A      9.668168   747A      9.679706   748A      9.698694  
     749A      9.708689   750A      9.726080   751A      9.731806  
     752A      9.751944   753A      9.789119   754A      9.816333  
     755A      9.827242   756A      9.862310   757A      9.874695  
     758A      9.882873   759A      9.914167   760A      9.937260  
     761A      9.968154   762A      9.987853   763A     10.015563  
     764A     10.031088   765A     10.034987   766A     10.066769  
     767A     10.083178   768A     10.112754   769A     10.128670  
     770A     10.135427   771A     10.167349   772A     10.180119  
     773A     10.188164   774A     10.224337   775A     10.253223  
     776A     10.261725   777A     10.263591   778A     10.282989  
     779A     10.299074   780A     10.316060   781A     10.328416  
     782A     10.361208   783A     10.379146   784A     10.462467  
     785A     10.464096   786A     10.486895   787A     10.563831  
     788A     10.632216   789A     10.691934   790A     10.725497  
     791A     10.762053   792A     12.179040   793A     12.315753  
     794A     12.433145   795A     12.521260   796A     12.522041  
     797A     12.570107   798A     12.610948   799A     13.098376  
     800A     13.172206   801A     13.201110   802A     13.203506  
     803A     13.219598   804A     13.271406   805A     13.365909  
     806A     29.075664   807A     29.144837   808A     29.177855  
     809A     29.201484   810A     29.222883   811A     29.272559  
     812A     29.290843   813A    148.317223   814A    148.378268  
     815A    148.405526   816A    148.462271   817A    148.487665  
     818A    148.509622   819A    148.595936  

    Final Occupation by Irrep:
              A 
    DOCC [    28 ]

  @DF-RKS Final Energy:  -274.96377938996130

   => Energetics <=

    Nuclear Repulsion Energy =            333.8877718636267105
    One-Electron Energy =               -1030.8867271905783127
    Two-Electron Energy =                 454.6927043068404828
    DFT Exchange-Correlation Energy =     -32.6575283698502261
    Empirical Dispersion Energy =           0.0000000000000000
    VV10 Nonlocal Energy =                  0.0000000000000000
    Total Energy =                       -274.9637793899613030

Computation Completed


Properties will be evaluated at   0.000000,   0.000000,   0.000000 [a0]

Properties computed using the SCF density matrix

  Nuclear Dipole Moment: [e a0]
     X:     0.7151      Y:    -0.0000      Z:     0.8968

  Electronic Dipole Moment: [e a0]
     X:    -0.7185      Y:     0.0000      Z:    -0.9248

  Dipole Moment: [e a0]
     X:    -0.0034      Y:     0.0000      Z:    -0.0280     Total:     0.0282

  Dipole Moment: [D]
     X:    -0.0086      Y:     0.0000      Z:    -0.0711     Total:     0.0716


*** tstop() called on thinkpad at Sat Jul 10 14:29:03 2021
Module time:
	user time   =     510.22 seconds =       8.50 minutes
	system time =      11.98 seconds =       0.20 minutes
	total time  =        149 seconds =       2.48 minutes
Total time:
	user time   =     510.22 seconds =       8.50 minutes
	system time =      11.98 seconds =       0.20 minutes
	total time  =        149 seconds =       2.48 minutes

    Psi4 stopped on: Saturday, 10 July 2021 02:29PM
    Psi4 wall time for execution: 0:02:28.54

*** Psi4 exiting successfully. Buy a developer a beer!
