
    -----------------------------------------------------------------------
          Psi4: An Open-Source Ab Initio Electronic Structure Package
                               Psi4 1.3.2 release

                         Git: Rev {} zzzzzzz 


    R. M. Parrish, L. A. Burns, D. G. A. Smith, A. C. Simmonett,
    A. E. DePrince III, E. G. Hohenstein, U. Bozkaya, A. Yu. Sokolov,
    R. Di Remigio, R. M. Richard, J. F. Gonthier, A. M. James,
    H. R. McAlexander, A. Kumar, M. Saitow, X. Wang, B. P. Pritchard,
    P. Verma, H. F. Schaefer III, K. Patkowski, R. A. King, E. F. Valeev,
    F. A. Evangelista, J. M. Turney, T. D. Crawford, and C. D. Sherrill,
    J. Chem. Theory Comput. 13(7) pp 3185--3197 (2017).
    (doi: 10.1021/acs.jctc.7b00174)


                         Additional Contributions by
    P. Kraus, H. Kruse, M. H. Lechner, M. C. Schieber, R. A. Shaw,
    A. Alenaizan, R. Galvelis, Z. L. Glick, S. Lehtola, and J. P. Misiewicz

    -----------------------------------------------------------------------


    Psi4 started on: Saturday, 10 July 2021 02:31PM

    Process ID: 1468990
    Host:       thinkpad
    PSIDATADIR: /usr/share/psi4
    Memory:     500.0 MiB
    Threads:    4
    
  ==> Input File <==

--------------------------------------------------------------------------
# PBE0/def2-QZVP calculation on methylcyclohexane conformer #4 

memory 4 gb

molecule {
	    C     1.0967391628  -0.0189497195  -0.5442522969
	    C     0.2248116124  -1.2773262118  -0.5815552448
	    C     0.2186666840   1.2281403889  -0.6812511722
	    C    -0.9107270848  -1.2430181465   0.4351430269
	    C    -0.9165900156   1.2691052592   0.3354739372
	    C    -1.7656183377   0.0063011319   0.2652294025
	    C     1.9861643489   0.0324766408   0.6929603546
	    H     1.7619761891  -0.0519593128  -1.4155121231
	    H     0.8470133499  -2.1651667770  -0.4268217404
	    H    -0.2084250060  -1.3732402737  -1.5849221445
	    H    -0.2150661957   1.2417167067  -1.6888811869
	    H     0.8364239134   2.1285704211  -0.5978963419
	    H    -0.5029163708  -1.2675470736   1.4523818526
	    H    -1.5267819337  -2.1416437225   0.3329272687
	    H    -1.5368131345   2.1539784780   0.1627803425
	    H    -0.5088087563   1.3758575644   1.3474077991
	    H    -2.2691485831  -0.0335678392  -0.7094746205
	    H    -2.5554707794   0.0345024101   1.0220933739
	    H     2.6286920275   0.9169412507   0.6736089759
	    H     1.4091425194   0.0683224367   1.6197482185
	    H     2.6326254302  -0.8478211176   0.7442933959
}

# It is beneficial to initialize larger-basis calculations with
# a small reasonable basis; use def2-SV(P) for this purpose
set basis_guess def2-SV(P)
set basis def2-QZVP
energy('pbe0')
--------------------------------------------------------------------------

  Memory set to   3.725 GiB by Python driver.

*** tstart() called on thinkpad
*** at Sat Jul 10 14:31:30 2021


  //>>>>>>>>>>>>>>>>>>>>>>>>>>>>>>>>>>>//
  //    Guess SCF, DEF2-SV(P) Basis    //
  //<<<<<<<<<<<<<<<<<<<<<<<<<<<<<<<<<<<//

   => Loading Basis Set <=

    Name: DEF2-SV(P)
    Role: ORBITAL
    Keyword: BASIS
    atoms 1-7  entry C          line    88 file /usr/share/psi4/basis/def2-sv_p_.gbs 
    atoms 8-21 entry H          line    15 file /usr/share/psi4/basis/def2-sv_p_.gbs 


         ---------------------------------------------------------
                           SCF Castup computation                  
         ---------------------------------------------------------
                                   SCF
               by Justin Turney, Rob Parrish, Andy Simmonett
                          and Daniel G. A. Smith
                              RKS Reference
                        4 Threads,   3814 MiB Core
         ---------------------------------------------------------

  ==> Geometry <==

    Molecular point group: c1
    Full point group: C1

    Geometry (in Angstrom), charge = 0, multiplicity = 1:

       Center              X                  Y                   Z               Mass       
    ------------   -----------------  -----------------  -----------------  -----------------
         C            1.096739162806    -0.018949719487    -0.544252296887    12.000000000000
         C            0.224811612406    -1.277326211787    -0.581555244787    12.000000000000
         C            0.218666684006     1.228140388913    -0.681251172187    12.000000000000
         C           -0.910727084794    -1.243018146487     0.435143026913    12.000000000000
         C           -0.916590015594     1.269105259213     0.335473937213    12.000000000000
         C           -1.765618337694     0.006301131913     0.265229402513    12.000000000000
         C            1.986164348906     0.032476640813     0.692960354613    12.000000000000
         H            1.761976189106    -0.051959312787    -1.415512123087     1.007825032230
         H            0.847013349906    -2.165166776987    -0.426821740387     1.007825032230
         H           -0.208425005994    -1.373240273687    -1.584922144487     1.007825032230
         H           -0.215066195694     1.241716706713    -1.688881186887     1.007825032230
         H            0.836423913406     2.128570421113    -0.597896341887     1.007825032230
         H           -0.502916370794    -1.267547073587     1.452381852613     1.007825032230
         H           -1.526781933694    -2.141643722487     0.332927268713     1.007825032230
         H           -1.536813134494     2.153978478013     0.162780342513     1.007825032230
         H           -0.508808756294     1.375857564413     1.347407799113     1.007825032230
         H           -2.269148583094    -0.033567839187    -0.709474620487     1.007825032230
         H           -2.555470779394     0.034502410113     1.022093373913     1.007825032230
         H            2.628692027506     0.916941250713     0.673608975913     1.007825032230
         H            1.409142519406     0.068322436713     1.619748218513     1.007825032230
         H            2.632625430206    -0.847821117587     0.744293395913     1.007825032230

  Running in c1 symmetry.

  Rotational constants: A =      0.11798  B =      0.08488  C =      0.06450 [cm^-1]
  Rotational constants: A =   3537.00271  B =   2544.63395  C =   1933.68807 [MHz]
  Nuclear repulsion =  333.886463115406457

  Charge       = 0
  Multiplicity = 1
  Electrons    = 56
  Nalpha       = 28
  Nbeta        = 28

  ==> Algorithm <==

  SCF Algorithm Type is DF.
  DIIS enabled.
  MOM disabled.
  Fractional occupation disabled.
  Guess Type is SAD.
  Energy threshold   = 1.00e-06
  Density threshold  = 1.00e-06
  Integral threshold = 0.00e+00

  ==> Primary Basis <==

  Basis Set: DEF2-SV(P)
    Blend: DEF2-SV(P)
    Number of shells: 70
    Number of basis function: 126
    Number of Cartesian functions: 133
    Spherical Harmonics?: true
    Max angular momentum: 2

  ==> DFT Potential <==

   => Composite Functional: PBE0 <= 

    PBE0 Hyb-GGA Exchange-Correlation Functional

    C. Adamo and V. Barone, J. Chem. Phys. 110, 6158 (1999)
    M. Ernzerhof and G. E. Scuseria, J. Chem. Phys. 110, 5029 (1999)

    Deriv               =              1
    GGA                 =           TRUE
    Meta                =          FALSE

    Exchange Hybrid     =           TRUE
    MP2 Hybrid          =          FALSE

   => Exchange Functionals <=

    0.7500   Perdew, Burke & Ernzerhof

   => Exact (HF) Exchange <=

    0.2500               HF 

   => Correlation Functionals <=

    1.0000   Perdew, Burke & Ernzerhof

   => Molecular Quadrature <=

    Radial Scheme          =       TREUTLER
    Pruning Scheme         =           FLAT
    Nuclear Scheme         =       TREUTLER

    BS radius alpha        =              1
    Pruning alpha          =              1
    Radial Points          =             75
    Spherical Points       =            302
    Total Points           =         469461
    Total Blocks           =           3444
    Max Points             =            256
    Max Functions          =            125

   => Loading Basis Set <=

    Name: (DEF2-SV(P) AUX)
    Role: JKFIT
    Keyword: DF_BASIS_SCF
    atoms 1-7  entry C          line   203 file /usr/share/psi4/basis/def2-sv_p_-jkfit.gbs 
    atoms 8-21 entry H          line    23 file /usr/share/psi4/basis/def2-sv_p_-jkfit.gbs 

  ==> Pre-Iterations <==

   -------------------------------------------------------
    Irrep   Nso     Nmo     Nalpha   Nbeta   Ndocc  Nsocc
   -------------------------------------------------------
     A        126     126       0       0       0       0
   -------------------------------------------------------
    Total     126     126      28      28      28       0
   -------------------------------------------------------

  ==> Integral Setup <==

  ==> DiskDFJK: Density-Fitted J/K Matrices <==

    J tasked:                  Yes
    K tasked:                  Yes
    wK tasked:                  No
    OpenMP threads:              4
    Integrals threads:           4
    Memory [MiB]:             1434
    Algorithm:                Core
    Integral Cache:           NONE
    Schwarz Cutoff:          1E-12
    Fitting Condition:       1E-10

   => Auxiliary Basis Set <=

  Basis Set: (DEF2-SV(P) AUX)
    Blend: DEF2-SV_P_-JKFIT
    Number of shells: 259
    Number of basis function: 777
    Number of Cartesian functions: 903
    Spherical Harmonics?: true
    Max angular momentum: 4

  Cached 100.0% of DFT collocation blocks in 1.393 [GiB].

  Minimum eigenvalue in the overlap matrix is 1.5297774713E-03.
  Using Symmetric Orthogonalization.

  SCF Guess: Superposition of Atomic Densities via on-the-fly atomic UHF.

  ==> Iterations <==

                           Total Energy        Delta E     RMS |[F,P]|

   @DF-RKS iter SAD:  -274.33779899359382   -2.74338e+02   0.00000e+00 
   @DF-RKS iter   1:  -274.03313226639511    3.04667e-01   8.19881e-03 DIIS
   @DF-RKS iter   2:  -273.68080557551463    3.52327e-01   1.04821e-02 DIIS
   @DF-RKS iter   3:  -274.62213533219108   -9.41330e-01   8.05246e-04 DIIS
   @DF-RKS iter   4:  -274.62635807214303   -4.22274e-03   2.86827e-04 DIIS
   @DF-RKS iter   5:  -274.62693715393345   -5.79082e-04   8.88844e-05 DIIS
   @DF-RKS iter   6:  -274.62699847251872   -6.13186e-05   8.83469e-06 DIIS
   @DF-RKS iter   7:  -274.62699907636193   -6.03843e-07   3.48623e-06 DIIS
   @DF-RKS iter   8:  -274.62699917371663   -9.73547e-08   7.01970e-07 DIIS
  Energy and wave function converged.


  ==> Post-Iterations <==

    Orbital Energies [Eh]
    ---------------------

    Doubly Occupied:                                                      

       1A    -10.225739     2A    -10.215894     3A    -10.215743  
       4A    -10.215690     5A    -10.215225     6A    -10.215205  
       7A    -10.208941     8A     -0.854311     9A     -0.775406  
      10A     -0.754130    11A     -0.689638    12A     -0.617982  
      13A     -0.605608    14A     -0.539781    15A     -0.499967  
      16A     -0.460733    17A     -0.458219    18A     -0.439485  
      19A     -0.413789    20A     -0.412209    21A     -0.387270  
      22A     -0.370590    23A     -0.365320    24A     -0.348264  
      25A     -0.343317    26A     -0.316917    27A     -0.303453  
      28A     -0.303288  

    Virtual:                                                              

      29A      0.059610    30A      0.080717    31A      0.100194  
      32A      0.109260    33A      0.127004    34A      0.130894  
      35A      0.145379    36A      0.151620    37A      0.155058  
      38A      0.157849    39A      0.166559    40A      0.179355  
      41A      0.200645    42A      0.205972    43A      0.225339  
      44A      0.234119    45A      0.248847    46A      0.255045  
      47A      0.268854    48A      0.295185    49A      0.296070  
      50A      0.424468    51A      0.437090    52A      0.448018  
      53A      0.459848    54A      0.474854    55A      0.477466  
      56A      0.485087    57A      0.573734    58A      0.630772  
      59A      0.636882    60A      0.644344    61A      0.658118  
      62A      0.678914    63A      0.682322    64A      0.696785  
      65A      0.698297    66A      0.701159    67A      0.711712  
      68A      0.718796    69A      0.730773    70A      0.730907  
      71A      0.743617    72A      0.744538    73A      0.745534  
      74A      0.748165    75A      0.755549    76A      0.757803  
      77A      0.767277    78A      0.784877    79A      0.791448  
      80A      0.801485    81A      0.827220    82A      0.855903  
      83A      0.890381    84A      0.925401    85A      1.009596  
      86A      1.092758    87A      1.163166    88A      1.189552  
      89A      1.208040    90A      1.315126    91A      1.327000  
      92A      1.371095    93A      1.380398    94A      1.563348  
      95A      1.611594    96A      1.699357    97A      1.728519  
      98A      1.791922    99A      1.806704   100A      1.826305  
     101A      1.910119   102A      1.936852   103A      1.955102  
     104A      1.971684   105A      1.983848   106A      2.004392  
     107A      2.091222   108A      2.112399   109A      2.113542  
     110A      2.121002   111A      2.206458   112A      2.227126  
     113A      2.255759   114A      2.295311   115A      2.317885  
     116A      2.336115   117A      2.374459   118A      2.392093  
     119A      2.449107   120A      2.555288   121A      2.652065  
     122A      2.656474   123A      2.685624   124A      2.711268  
     125A      2.722799   126A      2.771949  

    Final Occupation by Irrep:
              A 
    DOCC [    28 ]

  @DF-RKS Final Energy:  -274.62699917371663

   => Energetics <=

    Nuclear Repulsion Energy =            333.8864631154064568
    One-Electron Energy =               -1030.2022152479321448
    Two-Electron Energy =                 454.2886509494355209
    DFT Exchange-Correlation Energy =     -32.5998979906265589
    Empirical Dispersion Energy =           0.0000000000000000
    VV10 Nonlocal Energy =                  0.0000000000000000
    Total Energy =                       -274.6269991737166833

Computation Completed

  //>>>>>>>>>>>>>>>>>>>>>>>>>>>>>>>>>>>//
  //                PBE0               //
  //<<<<<<<<<<<<<<<<<<<<<<<<<<<<<<<<<<<//

   => Loading Basis Set <=

    Name: DEF2-QZVP
    Role: ORBITAL
    Keyword: BASIS
    atoms 1-7  entry C          line   194 file /usr/share/psi4/basis/def2-qzvp.gbs 
    atoms 8-21 entry H          line    15 file /usr/share/psi4/basis/def2-qzvp.gbs 


         ---------------------------------------------------------
                                   SCF
               by Justin Turney, Rob Parrish, Andy Simmonett
                          and Daniel G. A. Smith
                              RKS Reference
                        4 Threads,   3814 MiB Core
         ---------------------------------------------------------

  ==> Geometry <==

    Molecular point group: c1
    Full point group: C1

    Geometry (in Angstrom), charge = 0, multiplicity = 1:

       Center              X                  Y                   Z               Mass       
    ------------   -----------------  -----------------  -----------------  -----------------
         C            1.096739162806    -0.018949719487    -0.544252296887    12.000000000000
         C            0.224811612406    -1.277326211787    -0.581555244787    12.000000000000
         C            0.218666684006     1.228140388913    -0.681251172187    12.000000000000
         C           -0.910727084794    -1.243018146487     0.435143026913    12.000000000000
         C           -0.916590015594     1.269105259213     0.335473937213    12.000000000000
         C           -1.765618337694     0.006301131913     0.265229402513    12.000000000000
         C            1.986164348906     0.032476640813     0.692960354613    12.000000000000
         H            1.761976189106    -0.051959312787    -1.415512123087     1.007825032230
         H            0.847013349906    -2.165166776987    -0.426821740387     1.007825032230
         H           -0.208425005994    -1.373240273687    -1.584922144487     1.007825032230
         H           -0.215066195694     1.241716706713    -1.688881186887     1.007825032230
         H            0.836423913406     2.128570421113    -0.597896341887     1.007825032230
         H           -0.502916370794    -1.267547073587     1.452381852613     1.007825032230
         H           -1.526781933694    -2.141643722487     0.332927268713     1.007825032230
         H           -1.536813134494     2.153978478013     0.162780342513     1.007825032230
         H           -0.508808756294     1.375857564413     1.347407799113     1.007825032230
         H           -2.269148583094    -0.033567839187    -0.709474620487     1.007825032230
         H           -2.555470779394     0.034502410113     1.022093373913     1.007825032230
         H            2.628692027506     0.916941250713     0.673608975913     1.007825032230
         H            1.409142519406     0.068322436713     1.619748218513     1.007825032230
         H            2.632625430206    -0.847821117587     0.744293395913     1.007825032230

  Running in c1 symmetry.

  Rotational constants: A =      0.11798  B =      0.08488  C =      0.06450 [cm^-1]
  Rotational constants: A =   3537.00271  B =   2544.63395  C =   1933.68807 [MHz]
  Nuclear repulsion =  333.886463115406457

  Charge       = 0
  Multiplicity = 1
  Electrons    = 56
  Nalpha       = 28
  Nbeta        = 28

  ==> Algorithm <==

  SCF Algorithm Type is DF.
  DIIS enabled.
  MOM disabled.
  Fractional occupation disabled.
  Guess Type is SAD.
  Energy threshold   = 1.00e-06
  Density threshold  = 1.00e-06
  Integral threshold = 0.00e+00

  ==> Primary Basis <==

  Basis Set: DEF2-QZVP
    Blend: DEF2-QZVP
    Number of shells: 259
    Number of basis function: 819
    Number of Cartesian functions: 994
    Spherical Harmonics?: true
    Max angular momentum: 4

  ==> DFT Potential <==

   => Composite Functional: PBE0 <= 

    PBE0 Hyb-GGA Exchange-Correlation Functional

    C. Adamo and V. Barone, J. Chem. Phys. 110, 6158 (1999)
    M. Ernzerhof and G. E. Scuseria, J. Chem. Phys. 110, 5029 (1999)

    Deriv               =              1
    GGA                 =           TRUE
    Meta                =          FALSE

    Exchange Hybrid     =           TRUE
    MP2 Hybrid          =          FALSE

   => Exchange Functionals <=

    0.7500   Perdew, Burke & Ernzerhof

   => Exact (HF) Exchange <=

    0.2500               HF 

   => Correlation Functionals <=

    1.0000   Perdew, Burke & Ernzerhof

   => Molecular Quadrature <=

    Radial Scheme          =       TREUTLER
    Pruning Scheme         =           FLAT
    Nuclear Scheme         =       TREUTLER

    BS radius alpha        =              1
    Pruning alpha          =              1
    Radial Points          =             75
    Spherical Points       =            302
    Total Points           =         474032
    Total Blocks           =           3480
    Max Points             =            256
    Max Functions          =            728

   => Loading Basis Set <=

    Name: (DEF2-QZVP AUX)
    Role: JKFIT
    Keyword: DF_BASIS_SCF
    atoms 1-7  entry C          line   203 file /usr/share/psi4/basis/def2-qzvp-jkfit.gbs 
    atoms 8-21 entry H          line    23 file /usr/share/psi4/basis/def2-qzvp-jkfit.gbs 


  Computing basis projection from DEF2-SV(P) to DEF2-QZVP

  ==> Pre-Iterations <==

   -------------------------------------------------------
    Irrep   Nso     Nmo     Nalpha   Nbeta   Ndocc  Nsocc
   -------------------------------------------------------
     A        819     819       0       0       0       0
   -------------------------------------------------------
    Total     819     819      28      28      28       0
   -------------------------------------------------------

  ==> Integral Setup <==

  ==> DiskDFJK: Density-Fitted J/K Matrices <==

    J tasked:                  Yes
    K tasked:                  Yes
    wK tasked:                  No
    OpenMP threads:              4
    Integrals threads:           4
    Memory [MiB]:             1851
    Algorithm:                Disk
    Integral Cache:           NONE
    Schwarz Cutoff:          1E-12
    Fitting Condition:       1E-10

   => Auxiliary Basis Set <=

  Basis Set: (DEF2-QZVP AUX)
    Blend: DEF2-QZVP-JKFIT
    Number of shells: 259
    Number of basis function: 777
    Number of Cartesian functions: 903
    Spherical Harmonics?: true
    Max angular momentum: 4

  Cached 16.7% of DFT collocation blocks in 1.109 [GiB].

  Minimum eigenvalue in the overlap matrix is 8.9054517868E-06.
  Using Symmetric Orthogonalization.

  SCF Guess: Orbitals guess was supplied from a previous computation.

  ==> Iterations <==

                           Total Energy        Delta E     RMS |[F,P]|

   @DF-RKS iter   0:  -274.74116496433328   -2.74741e+02   3.68567e-03 
   @DF-RKS iter   1:  -274.96279344422322   -2.21628e-01   5.67962e-05 DIIS
   @DF-RKS iter   2:  -274.96270345146792    8.99928e-05   5.63107e-05 DIIS
   @DF-RKS iter   3:  -274.96373371511402   -1.03026e-03   1.20148e-05 DIIS
   @DF-RKS iter   4:  -274.96377730487887   -4.35898e-05   2.98134e-06 DIIS
   @DF-RKS iter   5:  -274.96377988280426   -2.57793e-06   6.15716e-07 DIIS
   @DF-RKS iter   6:  -274.96377999327842   -1.10474e-07   1.25392e-07 DIIS
  Energy and wave function converged.


  ==> Post-Iterations <==

    Orbital Energies [Eh]
    ---------------------

    Doubly Occupied:                                                      

       1A    -10.219785     2A    -10.211157     3A    -10.210878  
       4A    -10.210759     5A    -10.210245     6A    -10.210236  
       7A    -10.204353     8A     -0.859541     9A     -0.781405  
      10A     -0.760081    11A     -0.695467    12A     -0.622622  
      13A     -0.609723    14A     -0.542254    15A     -0.498358  
      16A     -0.459079    17A     -0.458276    18A     -0.437600  
      19A     -0.411981    20A     -0.410137    21A     -0.384967  
      22A     -0.368498    23A     -0.363464    24A     -0.345989  
      25A     -0.341153    26A     -0.315209    27A     -0.301415  
      28A     -0.301236  

    Virtual:                                                              

      29A      0.024575    30A      0.038301    31A      0.048944  
      32A      0.054036    33A      0.074008    34A      0.076217  
      35A      0.078408    36A      0.088349    37A      0.092182  
      38A      0.103363    39A      0.115462    40A      0.117448  
      41A      0.134565    42A      0.135346    43A      0.143385  
      44A      0.163395    45A      0.163807    46A      0.179370  
      47A      0.181164    48A      0.188208    49A      0.194549  
      50A      0.204347    51A      0.210550    52A      0.219759  
      53A      0.224658    54A      0.229973    55A      0.232972  
      56A      0.249660    57A      0.263281    58A      0.270610  
      59A      0.285495    60A      0.294723    61A      0.303414  
      62A      0.305238    63A      0.305334    64A      0.312367  
      65A      0.317131    66A      0.318774    67A      0.329673  
      68A      0.337321    69A      0.338155    70A      0.340740  
      71A      0.352589    72A      0.353585    73A      0.356665  
      74A      0.365262    75A      0.377443    76A      0.384282  
      77A      0.385851    78A      0.391797    79A      0.391877  
      80A      0.399438    81A      0.403299    82A      0.409795  
      83A      0.466628    84A      0.487705    85A      0.513191  
      86A      0.527774    87A      0.538180    88A      0.544672  
      89A      0.557899    90A      0.567365    91A      0.571869  
      92A      0.580821    93A      0.581015    94A      0.595007  
      95A      0.601004    96A      0.606740    97A      0.616733  
      98A      0.622861    99A      0.629869   100A      0.631151  
     101A      0.635374   102A      0.638453   103A      0.649537  
     104A      0.656716   105A      0.677863   106A      0.689846  
     107A      0.708247   108A      0.747121   109A      0.765120  
     110A      0.784474   111A      0.785711   112A      0.796141  
     113A      0.802627   114A      0.812198   115A      0.819687  
     116A      0.820034   117A      0.822598   118A      0.832909  
     119A      0.837771   120A      0.846868   121A      0.852308  
     122A      0.857834   123A      0.860720   124A      0.874122  
     125A      0.875740   126A      0.880564   127A      0.889098  
     128A      0.889897   129A      0.900633   130A      0.906394  
     131A      0.908692   132A      0.927221   133A      0.928394  
     134A      0.943973   135A      0.955645   136A      0.959768  
     137A      0.964701   138A      0.978158   139A      0.993498  
     140A      0.994755   141A      0.997414   142A      1.004786  
     143A      1.011832   144A      1.021906   145A      1.022507  
     146A      1.040359   147A      1.067272   148A      1.072898  
     149A      1.076775   150A      1.103467   151A      1.106960  
     152A      1.124323   153A      1.152051   154A      1.157957  
     155A      1.166578   156A      1.174414   157A      1.182874  
     158A      1.184219   159A      1.189684   160A      1.203880  
     161A      1.207290   162A      1.227966   163A      1.242389  
     164A      1.243143   165A      1.259729   166A      1.270861  
     167A      1.278450   168A      1.316205   169A      1.321332  
     170A      1.344218   171A      1.349281   172A      1.358793  
     173A      1.367272   174A      1.379781   175A      1.396816  
     176A      1.400276   177A      1.425932   178A      1.435979  
     179A      1.451668   180A      1.456175   181A      1.456233  
     182A      1.487557   183A      1.489034   184A      1.498900  
     185A      1.500235   186A      1.508845   187A      1.531218  
     188A      1.540876   189A      1.547852   190A      1.577338  
     191A      1.579485   192A      1.598208   193A      1.599845  
     194A      1.621244   195A      1.650204   196A      1.661142  
     197A      1.684388   198A      1.699644   199A      1.710712  
     200A      1.748681   201A      1.753072   202A      1.761763  
     203A      1.767116   204A      1.770938   205A      1.788938  
     206A      1.813177   207A      1.821967   208A      1.851813  
     209A      1.853207   210A      1.890680   211A      1.906103  
     212A      1.907469   213A      1.928071   214A      1.942307  
     215A      1.950863   216A      1.959300   217A      1.981920  
     218A      1.983324   219A      1.986978   220A      1.993514  
     221A      2.011805   222A      2.013799   223A      2.029023  
     224A      2.030279   225A      2.036954   226A      2.053389  
     227A      2.069636   228A      2.078136   229A      2.083509  
     230A      2.092555   231A      2.109486   232A      2.113585  
     233A      2.118808   234A      2.121204   235A      2.149734  
     236A      2.150419   237A      2.157264   238A      2.164137  
     239A      2.179352   240A      2.207998   241A      2.216320  
     242A      2.216971   243A      2.219666   244A      2.231742  
     245A      2.233401   246A      2.241906   247A      2.253080  
     248A      2.265350   249A      2.276069   250A      2.278261  
     251A      2.282832   252A      2.288588   253A      2.294496  
     254A      2.310755   255A      2.330618   256A      2.332613  
     257A      2.344889   258A      2.348376   259A      2.359564  
     260A      2.360950   261A      2.390781   262A      2.394093  
     263A      2.395900   264A      2.399384   265A      2.429587  
     266A      2.442985   267A      2.449338   268A      2.457364  
     269A      2.485567   270A      2.488808   271A      2.499625  
     272A      2.508150   273A      2.510292   274A      2.537229  
     275A      2.563506   276A      2.569965   277A      2.582199  
     278A      2.597882   279A      2.598359   280A      2.603885  
     281A      2.612604   282A      2.632700   283A      2.639941  
     284A      2.652786   285A      2.661343   286A      2.661628  
     287A      2.664084   288A      2.676375   289A      2.677271  
     290A      2.691628   291A      2.698173   292A      2.699044  
     293A      2.720285   294A      2.722290   295A      2.728364  
     296A      2.743121   297A      2.745367   298A      2.763891  
     299A      2.777047   300A      2.799780   301A      2.803922  
     302A      2.834049   303A      2.856342   304A      2.858378  
     305A      2.873705   306A      2.881619   307A      2.887058  
     308A      2.891285   309A      2.896874   310A      2.914895  
     311A      2.922240   312A      2.922647   313A      2.935293  
     314A      2.941074   315A      2.953083   316A      2.967519  
     317A      2.973242   318A      2.978898   319A      2.985591  
     320A      3.004244   321A      3.009073   322A      3.012512  
     323A      3.024006   324A      3.038679   325A      3.055339  
     326A      3.056142   327A      3.076072   328A      3.084079  
     329A      3.088800   330A      3.103131   331A      3.103452  
     332A      3.117378   333A      3.125729   334A      3.139470  
     335A      3.167975   336A      3.172410   337A      3.191973  
     338A      3.206875   339A      3.214742   340A      3.232898  
     341A      3.239032   342A      3.244943   343A      3.247579  
     344A      3.267807   345A      3.286856   346A      3.301804  
     347A      3.302888   348A      3.357771   349A      3.371734  
     350A      3.375193   351A      3.377992   352A      3.389381  
     353A      3.392158   354A      3.409598   355A      3.422574  
     356A      3.439535   357A      3.447567   358A      3.450120  
     359A      3.456873   360A      3.486031   361A      3.500362  
     362A      3.516818   363A      3.530576   364A      3.558429  
     365A      3.561897   366A      3.564707   367A      3.583051  
     368A      3.611766   369A      3.617355   370A      3.636432  
     371A      3.652489   372A      3.668884   373A      3.669905  
     374A      3.681397   375A      3.690530   376A      3.706514  
     377A      3.736199   378A      3.743320   379A      3.746929  
     380A      3.784000   381A      3.802393   382A      3.813115  
     383A      3.823003   384A      3.828056   385A      3.852648  
     386A      3.869160   387A      3.874972   388A      3.915466  
     389A      3.918447   390A      3.924084   391A      3.927446  
     392A      3.939606   393A      3.951085   394A      3.978154  
     395A      3.982675   396A      3.991392   397A      4.005972  
     398A      4.017909   399A      4.032665   400A      4.035094  
     401A      4.053842   402A      4.067156   403A      4.086628  
     404A      4.091990   405A      4.178533   406A      4.192984  
     407A      4.194282   408A      4.234701   409A      4.238694  
     410A      4.267143   411A      4.280145   412A      4.301093  
     413A      4.383307   414A      4.459281   415A      4.499120  
     416A      4.512051   417A      4.548690   418A      4.596331  
     419A      4.684937   420A      4.704158   421A      4.781713  
     422A      4.820196   423A      4.843653   424A      4.881783  
     425A      4.892727   426A      4.895912   427A      4.934026  
     428A      4.948871   429A      4.969324   430A      5.093075  
     431A      5.129687   432A      5.130533   433A      5.158197  
     434A      5.212226   435A      5.230061   436A      5.290324  
     437A      5.351634   438A      5.373368   439A      5.401997  
     440A      5.441549   441A      5.464439   442A      5.502657  
     443A      5.531475   444A      5.534741   445A      5.552998  
     446A      5.560541   447A      5.563688   448A      5.583427  
     449A      5.622646   450A      5.633560   451A      5.654502  
     452A      5.669451   453A      5.712383   454A      5.747723  
     455A      5.755127   456A      5.772734   457A      5.786976  
     458A      5.792163   459A      5.793614   460A      5.800750  
     461A      5.825164   462A      5.826288   463A      5.836720  
     464A      5.859932   465A      5.862544   466A      5.862637  
     467A      5.882097   468A      5.885227   469A      5.898400  
     470A      5.910810   471A      5.920392   472A      5.925031  
     473A      5.942331   474A      5.951233   475A      5.982210  
     476A      5.994226   477A      6.006493   478A      6.018678  
     479A      6.031743   480A      6.047388   481A      6.064316  
     482A      6.066316   483A      6.074281   484A      6.079504  
     485A      6.093639   486A      6.094191   487A      6.101870  
     488A      6.111212   489A      6.126929   490A      6.128872  
     491A      6.138639   492A      6.140492   493A      6.147757  
     494A      6.170107   495A      6.180851   496A      6.187635  
     497A      6.192545   498A      6.218505   499A      6.231272  
     500A      6.241971   501A      6.260056   502A      6.263450  
     503A      6.278867   504A      6.294230   505A      6.302965  
     506A      6.304252   507A      6.315422   508A      6.318496  
     509A      6.337976   510A      6.347883   511A      6.350610  
     512A      6.358122   513A      6.373511   514A      6.378399  
     515A      6.390483   516A      6.395079   517A      6.398955  
     518A      6.400276   519A      6.415935   520A      6.431757  
     521A      6.442841   522A      6.457310   523A      6.462362  
     524A      6.473229   525A      6.495877   526A      6.512567  
     527A      6.516346   528A      6.519361   529A      6.529914  
     530A      6.540289   531A      6.552330   532A      6.565113  
     533A      6.581473   534A      6.586155   535A      6.594589  
     536A      6.609650   537A      6.616543   538A      6.635239  
     539A      6.640811   540A      6.663568   541A      6.684140  
     542A      6.707085   543A      6.711899   544A      6.723605  
     545A      6.734749   546A      6.758447   547A      6.786081  
     548A      6.786396   549A      6.802165   550A      6.810340  
     551A      6.820891   552A      6.828843   553A      6.829823  
     554A      6.846206   555A      6.851286   556A      6.871035  
     557A      6.884276   558A      6.886949   559A      6.910747  
     560A      6.926326   561A      6.927991   562A      6.967922  
     563A      6.981039   564A      6.985319   565A      6.993116  
     566A      7.009648   567A      7.028685   568A      7.033596  
     569A      7.059420   570A      7.067169   571A      7.083385  
     572A      7.097046   573A      7.099395   574A      7.123931  
     575A      7.128934   576A      7.146581   577A      7.148257  
     578A      7.197636   579A      7.199483   580A      7.203826  
     581A      7.230878   582A      7.243992   583A      7.253550  
     584A      7.267454   585A      7.289242   586A      7.314943  
     587A      7.323921   588A      7.328015   589A      7.349100  
     590A      7.374505   591A      7.378512   592A      7.415292  
     593A      7.416473   594A      7.421733   595A      7.445674  
     596A      7.458121   597A      7.473915   598A      7.499151  
     599A      7.512309   600A      7.521241   601A      7.531681  
     602A      7.550115   603A      7.552089   604A      7.569874  
     605A      7.596894   606A      7.604555   607A      7.610681  
     608A      7.633559   609A      7.638910   610A      7.649775  
     611A      7.664429   612A      7.694432   613A      7.702803  
     614A      7.715699   615A      7.724855   616A      7.732240  
     617A      7.742374   618A      7.752975   619A      7.762336  
     620A      7.772251   621A      7.772892   622A      7.792366  
     623A      7.805830   624A      7.825323   625A      7.838269  
     626A      7.848960   627A      7.853074   628A      7.857215  
     629A      7.861411   630A      7.869399   631A      7.895134  
     632A      7.903062   633A      7.906670   634A      7.919632  
     635A      7.935066   636A      7.940618   637A      7.951537  
     638A      7.965013   639A      7.967876   640A      8.002582  
     641A      8.005301   642A      8.015262   643A      8.027898  
     644A      8.046737   645A      8.055792   646A      8.063241  
     647A      8.071805   648A      8.082603   649A      8.104782  
     650A      8.108034   651A      8.111783   652A      8.125746  
     653A      8.145679   654A      8.155168   655A      8.165932  
     656A      8.177283   657A      8.183911   658A      8.195871  
     659A      8.219047   660A      8.229105   661A      8.247710  
     662A      8.250221   663A      8.265663   664A      8.284787  
     665A      8.293112   666A      8.314223   667A      8.321414  
     668A      8.339372   669A      8.359639   670A      8.377759  
     671A      8.387802   672A      8.397640   673A      8.425143  
     674A      8.438781   675A      8.465781   676A      8.488229  
     677A      8.500360   678A      8.500457   679A      8.512091  
     680A      8.523682   681A      8.529255   682A      8.541303  
     683A      8.561470   684A      8.564009   685A      8.587288  
     686A      8.587596   687A      8.592430   688A      8.606896  
     689A      8.609448   690A      8.612879   691A      8.620017  
     692A      8.640824   693A      8.659021   694A      8.660550  
     695A      8.671186   696A      8.674993   697A      8.692647  
     698A      8.695706   699A      8.703922   700A      8.714516  
     701A      8.731960   702A      8.744194   703A      8.755304  
     704A      8.759673   705A      8.773205   706A      8.796384  
     707A      8.799673   708A      8.812406   709A      8.827216  
     710A      8.858754   711A      8.860504   712A      8.864932  
     713A      8.876492   714A      8.881600   715A      8.900400  
     716A      8.974965   717A      8.981560   718A      8.982451  
     719A      9.000037   720A      9.018967   721A      9.034141  
     722A      9.071959   723A      9.078693   724A      9.078790  
     725A      9.102239   726A      9.120393   727A      9.125174  
     728A      9.162091   729A      9.170176   730A      9.210465  
     731A      9.212480   732A      9.231296   733A      9.235013  
     734A      9.243234   735A      9.300835   736A      9.318045  
     737A      9.323524   738A      9.336054   739A      9.346183  
     740A      9.395526   741A      9.408944   742A      9.452358  
     743A      9.470266   744A      9.541495   745A      9.621912  
     746A      9.667890   747A      9.679490   748A      9.698606  
     749A      9.708629   750A      9.725812   751A      9.731758  
     752A      9.752115   753A      9.788897   754A      9.816253  
     755A      9.827144   756A      9.862297   757A      9.874473  
     758A      9.882776   759A      9.914053   760A      9.937107  
     761A      9.968121   762A      9.988198   763A     10.015703  
     764A     10.031190   765A     10.035102   766A     10.066988  
     767A     10.083181   768A     10.112724   769A     10.128654  
     770A     10.135390   771A     10.167573   772A     10.180006  
     773A     10.188213   774A     10.224322   775A     10.253421  
     776A     10.261626   777A     10.263389   778A     10.282612  
     779A     10.299096   780A     10.316006   781A     10.328275  
     782A     10.361299   783A     10.379184   784A     10.462439  
     785A     10.464095   786A     10.486962   787A     10.563999  
     788A     10.632410   789A     10.691990   790A     10.725461  
     791A     10.762126   792A     12.179350   793A     12.316004  
     794A     12.433031   795A     12.521252   796A     12.521903  
     797A     12.570320   798A     12.611001   799A     13.098497  
     800A     13.172611   801A     13.201109   802A     13.203503  
     803A     13.219743   804A     13.271422   805A     13.365825  
     806A     29.075494   807A     29.144634   808A     29.177731  
     809A     29.201388   810A     29.223016   811A     29.272622  
     812A     29.290671   813A    148.317045   814A    148.378048  
     815A    148.405387   816A    148.462121   817A    148.487773  
     818A    148.509702   819A    148.595725  

    Final Occupation by Irrep:
              A 
    DOCC [    28 ]

  @DF-RKS Final Energy:  -274.96377999327842

   => Energetics <=

    Nuclear Repulsion Energy =            333.8864631154064568
    One-Electron Energy =               -1030.8843419287775305
    Two-Electron Energy =                 454.6914921244682546
    DFT Exchange-Correlation Energy =     -32.6573933043756739
    Empirical Dispersion Energy =           0.0000000000000000
    VV10 Nonlocal Energy =                  0.0000000000000000
    Total Energy =                       -274.9637799932784219

Computation Completed


Properties will be evaluated at   0.000000,   0.000000,   0.000000 [a0]

Properties computed using the SCF density matrix

  Nuclear Dipole Moment: [e a0]
     X:     0.7429      Y:     0.0365      Z:     0.8735

  Electronic Dipole Moment: [e a0]
     X:    -0.7471      Y:    -0.0376      Z:    -0.9012

  Dipole Moment: [e a0]
     X:    -0.0042      Y:    -0.0011      Z:    -0.0278     Total:     0.0281

  Dipole Moment: [D]
     X:    -0.0106      Y:    -0.0028      Z:    -0.0705     Total:     0.0714


*** tstop() called on thinkpad at Sat Jul 10 14:34:01 2021
Module time:
	user time   =     517.13 seconds =       8.62 minutes
	system time =      11.97 seconds =       0.20 minutes
	total time  =        151 seconds =       2.52 minutes
Total time:
	user time   =     517.13 seconds =       8.62 minutes
	system time =      11.97 seconds =       0.20 minutes
	total time  =        151 seconds =       2.52 minutes

    Psi4 stopped on: Saturday, 10 July 2021 02:34PM
    Psi4 wall time for execution: 0:02:30.79

*** Psi4 exiting successfully. Buy a developer a beer!
