
    -----------------------------------------------------------------------
          Psi4: An Open-Source Ab Initio Electronic Structure Package
                               Psi4 1.3.2 release

                         Git: Rev {} zzzzzzz 


    R. M. Parrish, L. A. Burns, D. G. A. Smith, A. C. Simmonett,
    A. E. DePrince III, E. G. Hohenstein, U. Bozkaya, A. Yu. Sokolov,
    R. Di Remigio, R. M. Richard, J. F. Gonthier, A. M. James,
    H. R. McAlexander, A. Kumar, M. Saitow, X. Wang, B. P. Pritchard,
    P. Verma, H. F. Schaefer III, K. Patkowski, R. A. King, E. F. Valeev,
    F. A. Evangelista, J. M. Turney, T. D. Crawford, and C. D. Sherrill,
    J. Chem. Theory Comput. 13(7) pp 3185--3197 (2017).
    (doi: 10.1021/acs.jctc.7b00174)


                         Additional Contributions by
    P. Kraus, H. Kruse, M. H. Lechner, M. C. Schieber, R. A. Shaw,
    A. Alenaizan, R. Galvelis, Z. L. Glick, S. Lehtola, and J. P. Misiewicz

    -----------------------------------------------------------------------


    Psi4 started on: Tuesday, 18 January 2022 09:59PM

    Process ID: 845787
    Host:       lenovo
    PSIDATADIR: /usr/share/psi4
    Memory:     500.0 MiB
    Threads:    4
    
  ==> Input File <==

--------------------------------------------------------------------------
# PBE0/def2-SV(P) calculation on methylcyclohexane conformer #3 

memory 4 gb

molecule {
	    C    -1.0847725685   0.0976610825  -0.4269486177
	    C    -0.2698286331   1.2632156387   0.1518459996
	    C    -0.2064731988  -1.1590011569  -0.5835254873
	    C     1.1768592218   1.2148149812  -0.3150011265
	    C     0.9073632537  -1.1919128461   0.4526424034
	    C     1.8846981078  -0.0300906667   0.2374596405
	    C    -2.3170183281  -0.1754578965   0.4224861901
	    H    -1.4252224679   0.3936204591  -1.4264545578
	    H    -0.2943853849   1.2160561614   1.2480726357
	    H    -0.7398522975   2.2129762511  -0.1197664510
	    H     0.2423860527  -1.1790207230  -1.5827271443
	    H    -0.8297626199  -2.0557369873  -0.5127267397
	    H     1.7137734802   2.1193450789  -0.0171833746
	    H     1.1926687761   1.1999861347  -1.4106391729
	    H     1.4401448988  -2.1460138025   0.4197189705
	    H     0.4667241381  -1.1283670621   1.4537331255
	    H     2.6787063228  -0.3355753250  -0.4508708907
	    H     2.3775904019   0.2113515366   1.1842119500
	    H    -2.9090967022   0.7328018070   0.5666285472
	    H    -2.9622182726  -0.9275147374  -0.0392110358
	    H    -2.0329280334  -0.5428668226   1.4140188414
}

set basis def2-SV(P)
energy('pbe0')
--------------------------------------------------------------------------

  Memory set to   3.725 GiB by Python driver.

*** tstart() called on lenovo
*** at Tue Jan 18 21:59:52 2022

   => Loading Basis Set <=

    Name: DEF2-SV(P)
    Role: ORBITAL
    Keyword: BASIS
    atoms 1-7  entry C          line    88 file /usr/share/psi4/basis/def2-sv_p_.gbs 
    atoms 8-21 entry H          line    15 file /usr/share/psi4/basis/def2-sv_p_.gbs 


         ---------------------------------------------------------
                                   SCF
               by Justin Turney, Rob Parrish, Andy Simmonett
                          and Daniel G. A. Smith
                              RKS Reference
                        4 Threads,   3814 MiB Core
         ---------------------------------------------------------

  ==> Geometry <==

    Molecular point group: c1
    Full point group: C1

    Geometry (in Angstrom), charge = 0, multiplicity = 1:

       Center              X                  Y                   Z               Mass       
    ------------   -----------------  -----------------  -----------------  -----------------
         C           -1.084772568488     0.097661082507    -0.426948617689    12.000000000000
         C           -0.269828633088     1.263215638707     0.151845999611    12.000000000000
         C           -0.206473198788    -1.159001156893    -0.583525487289    12.000000000000
         C            1.176859221812     1.214814981207    -0.315001126489    12.000000000000
         C            0.907363253712    -1.191912846093     0.452642403411    12.000000000000
         C            1.884698107812    -0.030090666693     0.237459640511    12.000000000000
         C           -2.317018328088    -0.175457896493     0.422486190111    12.000000000000
         H           -1.425222467888     0.393620459107    -1.426454557789     1.007825032230
         H           -0.294385384888     1.216056161407     1.248072635711     1.007825032230
         H           -0.739852297488     2.212976251107    -0.119766450989     1.007825032230
         H            0.242386052712    -1.179020722993    -1.582727144289     1.007825032230
         H           -0.829762619888    -2.055736987293    -0.512726739689     1.007825032230
         H            1.713773480212     2.119345078907    -0.017183374589     1.007825032230
         H            1.192668776112     1.199986134707    -1.410639172889     1.007825032230
         H            1.440144898812    -2.146013802493     0.419718970511     1.007825032230
         H            0.466724138112    -1.128367062093     1.453733125511     1.007825032230
         H            2.678706322812    -0.335575324993    -0.450870890689     1.007825032230
         H            2.377590401912     0.211351536607     1.184211950011     1.007825032230
         H           -2.909096702188     0.732801807007     0.566628547211     1.007825032230
         H           -2.962218272588    -0.927514737393    -0.039211035789     1.007825032230
         H           -2.032928033388    -0.542866822593     1.414018841411     1.007825032230

  Running in c1 symmetry.

  Rotational constants: A =      0.13633  B =      0.07598  C =      0.05807 [cm^-1]
  Rotational constants: A =   4086.98332  B =   2277.95767  C =   1740.89289 [MHz]
  Nuclear repulsion =  331.726266423276911

  Charge       = 0
  Multiplicity = 1
  Electrons    = 56
  Nalpha       = 28
  Nbeta        = 28

  ==> Algorithm <==

  SCF Algorithm Type is DF.
  DIIS enabled.
  MOM disabled.
  Fractional occupation disabled.
  Guess Type is SAD.
  Energy threshold   = 1.00e-06
  Density threshold  = 1.00e-06
  Integral threshold = 0.00e+00

  ==> Primary Basis <==

  Basis Set: DEF2-SV(P)
    Blend: DEF2-SV(P)
    Number of shells: 70
    Number of basis function: 126
    Number of Cartesian functions: 133
    Spherical Harmonics?: true
    Max angular momentum: 2

  ==> DFT Potential <==

   => Composite Functional: PBE0 <= 

    PBE0 Hyb-GGA Exchange-Correlation Functional

    C. Adamo and V. Barone, J. Chem. Phys. 110, 6158 (1999)
    M. Ernzerhof and G. E. Scuseria, J. Chem. Phys. 110, 5029 (1999)

    Deriv               =              1
    GGA                 =           TRUE
    Meta                =          FALSE

    Exchange Hybrid     =           TRUE
    MP2 Hybrid          =          FALSE

   => Exchange Functionals <=

    0.7500   Perdew, Burke & Ernzerhof

   => Exact (HF) Exchange <=

    0.2500               HF 

   => Correlation Functionals <=

    1.0000   Perdew, Burke & Ernzerhof

   => Molecular Quadrature <=

    Radial Scheme          =       TREUTLER
    Pruning Scheme         =           FLAT
    Nuclear Scheme         =       TREUTLER

    BS radius alpha        =              1
    Pruning alpha          =              1
    Radial Points          =             75
    Spherical Points       =            302
    Total Points           =         469440
    Total Blocks           =           3437
    Max Points             =            256
    Max Functions          =            125

   => Loading Basis Set <=

    Name: (DEF2-SV(P) AUX)
    Role: JKFIT
    Keyword: DF_BASIS_SCF
    atoms 1-7  entry C          line   203 file /usr/share/psi4/basis/def2-sv_p_-jkfit.gbs 
    atoms 8-21 entry H          line    23 file /usr/share/psi4/basis/def2-sv_p_-jkfit.gbs 

  ==> Pre-Iterations <==

   -------------------------------------------------------
    Irrep   Nso     Nmo     Nalpha   Nbeta   Ndocc  Nsocc
   -------------------------------------------------------
     A        126     126       0       0       0       0
   -------------------------------------------------------
    Total     126     126      28      28      28       0
   -------------------------------------------------------

  ==> Integral Setup <==

  DFHelper Memory: AOs need 0.100 GiB; user supplied 1.415 GiB. Using in-core AOs.

  ==> MemDFJK: Density-Fitted J/K Matrices <==

    J tasked:                   Yes
    K tasked:                   Yes
    wK tasked:                   No
    OpenMP threads:               4
    Memory [MiB]:              1448
    Algorithm:                 Core
    Schwarz Cutoff:           1E-12
    Mask sparsity (%):       0.5795
    Fitting Condition:        1E-10

   => Auxiliary Basis Set <=

  Basis Set: (DEF2-SV(P) AUX)
    Blend: DEF2-SV_P_-JKFIT
    Number of shells: 259
    Number of basis function: 777
    Number of Cartesian functions: 903
    Spherical Harmonics?: true
    Max angular momentum: 4

  Cached 100.0% of DFT collocation blocks in 1.379 [GiB].

  Minimum eigenvalue in the overlap matrix is 7.9464945137E-04.
  Using Symmetric Orthogonalization.

  SCF Guess: Superposition of Atomic Densities via on-the-fly atomic UHF.

  ==> Iterations <==

                           Total Energy        Delta E     RMS |[F,P]|

   @DF-RKS iter SAD:  -274.32125552444779   -2.74321e+02   0.00000e+00 
   @DF-RKS iter   1:  -274.03335147620521    2.87904e-01   8.13073e-03 DIIS
   @DF-RKS iter   2:  -273.71341369561003    3.19938e-01   1.02283e-02 DIIS
   @DF-RKS iter   3:  -274.61391515047285   -9.00501e-01   8.12898e-04 DIIS
   @DF-RKS iter   4:  -274.61814726368482   -4.23211e-03   3.13299e-04 DIIS
   @DF-RKS iter   5:  -274.61886503561459   -7.17772e-04   8.06653e-05 DIIS
   @DF-RKS iter   6:  -274.61891598756972   -5.09520e-05   8.53390e-06 DIIS
   @DF-RKS iter   7:  -274.61891654513317   -5.57563e-07   3.33831e-06 DIIS
   @DF-RKS iter   8:  -274.61891663294728   -8.78141e-08   7.31991e-07 DIIS
  Energy and wave function converged.


  ==> Post-Iterations <==

    Orbital Energies [Eh]
    ---------------------

    Doubly Occupied:                                                      

       1A    -10.225517     2A    -10.216078     3A    -10.215996  
       4A    -10.215925     5A    -10.214913     6A    -10.214723  
       7A    -10.209004     8A     -0.854232     9A     -0.775930  
      10A     -0.751461    11A     -0.685531    12A     -0.629211  
      13A     -0.596522    14A     -0.530444    15A     -0.503331  
      16A     -0.489231    17A     -0.451628    18A     -0.426684  
      19A     -0.411072    20A     -0.400925    21A     -0.385100  
      22A     -0.370550    23A     -0.365616    24A     -0.358553  
      25A     -0.346015    26A     -0.308081    27A     -0.305379  
      28A     -0.303229  

    Virtual:                                                              

      29A      0.059820    30A      0.080173    31A      0.093934  
      32A      0.112416    33A      0.124689    34A      0.134999  
      35A      0.138579    36A      0.144531    37A      0.154765  
      38A      0.161424    39A      0.169068    40A      0.184134  
      41A      0.190902    42A      0.195157    43A      0.217398  
      44A      0.219174    45A      0.247963    46A      0.272143  
      47A      0.284777    48A      0.308632    49A      0.322192  
      50A      0.431591    51A      0.443102    52A      0.457524  
      53A      0.460555    54A      0.485015    55A      0.497936  
      56A      0.504380    57A      0.572357    58A      0.614819  
      59A      0.633545    60A      0.640859    61A      0.649115  
      62A      0.660444    63A      0.675001    64A      0.681623  
      65A      0.695711    66A      0.706142    67A      0.717330  
      68A      0.722820    69A      0.727154    70A      0.732750  
      71A      0.733808    72A      0.739676    73A      0.746151  
      74A      0.755636    75A      0.757205    76A      0.767032  
      77A      0.769732    78A      0.772902    79A      0.776609  
      80A      0.791494    81A      0.800063    82A      0.845170  
      83A      0.852911    84A      0.974566    85A      1.010882  
      86A      1.062570    87A      1.091392    88A      1.106385  
      89A      1.200752    90A      1.309979    91A      1.346223  
      92A      1.422203    93A      1.455838    94A      1.636803  
      95A      1.705633    96A      1.710112    97A      1.759789  
      98A      1.771644    99A      1.794708   100A      1.838829  
     101A      1.884876   102A      1.909840   103A      1.947396  
     104A      1.961760   105A      2.001209   106A      2.030033  
     107A      2.050490   108A      2.087761   109A      2.096311  
     110A      2.144553   111A      2.183999   112A      2.216916  
     113A      2.235713   114A      2.311105   115A      2.335416  
     116A      2.344319   117A      2.404109   118A      2.427437  
     119A      2.481918   120A      2.492443   121A      2.537050  
     122A      2.641682   123A      2.703366   124A      2.712434  
     125A      2.769790   126A      2.810242  

    Final Occupation by Irrep:
              A 
    DOCC [    28 ]

  @DF-RKS Final Energy:  -274.61891663294728

   => Energetics <=

    Nuclear Repulsion Energy =            331.7262664232769112
    One-Electron Energy =               -1025.8899404317069184
    Two-Electron Energy =                 452.1419332793596482
    DFT Exchange-Correlation Energy =     -32.5971759038769235
    Empirical Dispersion Energy =           0.0000000000000000
    VV10 Nonlocal Energy =                  0.0000000000000000
    Total Energy =                       -274.6189166329472755

Computation Completed


Properties will be evaluated at   0.000000,   0.000000,   0.000000 [a0]

Properties computed using the SCF density matrix

  Nuclear Dipole Moment: [e a0]
     X:    -1.0138      Y:    -0.2146      Z:     0.6814

  Electronic Dipole Moment: [e a0]
     X:     1.0260      Y:     0.2246      Z:    -0.7081

  Dipole Moment: [e a0]
     X:     0.0121      Y:     0.0100      Z:    -0.0267     Total:     0.0310

  Dipole Moment: [D]
     X:     0.0308      Y:     0.0254      Z:    -0.0679     Total:     0.0788


*** tstop() called on lenovo at Tue Jan 18 22:00:02 2022
Module time:
	user time   =      27.68 seconds =       0.46 minutes
	system time =       0.73 seconds =       0.01 minutes
	total time  =         10 seconds =       0.17 minutes
Total time:
	user time   =      27.68 seconds =       0.46 minutes
	system time =       0.73 seconds =       0.01 minutes
	total time  =         10 seconds =       0.17 minutes

    Psi4 stopped on: Tuesday, 18 January 2022 10:00PM
    Psi4 wall time for execution: 0:00:09.94

*** Psi4 exiting successfully. Buy a developer a beer!
