
    -----------------------------------------------------------------------
          Psi4: An Open-Source Ab Initio Electronic Structure Package
                               Psi4 1.3.2 release

                         Git: Rev {} zzzzzzz 


    R. M. Parrish, L. A. Burns, D. G. A. Smith, A. C. Simmonett,
    A. E. DePrince III, E. G. Hohenstein, U. Bozkaya, A. Yu. Sokolov,
    R. Di Remigio, R. M. Richard, J. F. Gonthier, A. M. James,
    H. R. McAlexander, A. Kumar, M. Saitow, X. Wang, B. P. Pritchard,
    P. Verma, H. F. Schaefer III, K. Patkowski, R. A. King, E. F. Valeev,
    F. A. Evangelista, J. M. Turney, T. D. Crawford, and C. D. Sherrill,
    J. Chem. Theory Comput. 13(7) pp 3185--3197 (2017).
    (doi: 10.1021/acs.jctc.7b00174)


                         Additional Contributions by
    P. Kraus, H. Kruse, M. H. Lechner, M. C. Schieber, R. A. Shaw,
    A. Alenaizan, R. Galvelis, Z. L. Glick, S. Lehtola, and J. P. Misiewicz

    -----------------------------------------------------------------------


    Psi4 started on: Saturday, 10 July 2021 02:04PM

    Process ID: 1418006
    Host:       thinkpad
    PSIDATADIR: /usr/share/psi4
    Memory:     500.0 MiB
    Threads:    4
    
  ==> Input File <==

--------------------------------------------------------------------------
# PBE0/def2-SVP calculation on methylcyclohexane conformer #4 

memory 4 gb

molecule {
	    C     1.0967391628  -0.0189497195  -0.5442522969
	    C     0.2248116124  -1.2773262118  -0.5815552448
	    C     0.2186666840   1.2281403889  -0.6812511722
	    C    -0.9107270848  -1.2430181465   0.4351430269
	    C    -0.9165900156   1.2691052592   0.3354739372
	    C    -1.7656183377   0.0063011319   0.2652294025
	    C     1.9861643489   0.0324766408   0.6929603546
	    H     1.7619761891  -0.0519593128  -1.4155121231
	    H     0.8470133499  -2.1651667770  -0.4268217404
	    H    -0.2084250060  -1.3732402737  -1.5849221445
	    H    -0.2150661957   1.2417167067  -1.6888811869
	    H     0.8364239134   2.1285704211  -0.5978963419
	    H    -0.5029163708  -1.2675470736   1.4523818526
	    H    -1.5267819337  -2.1416437225   0.3329272687
	    H    -1.5368131345   2.1539784780   0.1627803425
	    H    -0.5088087563   1.3758575644   1.3474077991
	    H    -2.2691485831  -0.0335678392  -0.7094746205
	    H    -2.5554707794   0.0345024101   1.0220933739
	    H     2.6286920275   0.9169412507   0.6736089759
	    H     1.4091425194   0.0683224367   1.6197482185
	    H     2.6326254302  -0.8478211176   0.7442933959
}

set basis def2-SVP
energy('pbe0')
--------------------------------------------------------------------------

  Memory set to   3.725 GiB by Python driver.

*** tstart() called on thinkpad
*** at Sat Jul 10 14:04:30 2021

   => Loading Basis Set <=

    Name: DEF2-SVP
    Role: ORBITAL
    Keyword: BASIS
    atoms 1-7  entry C          line    90 file /usr/share/psi4/basis/def2-svp.gbs 
    atoms 8-21 entry H          line    15 file /usr/share/psi4/basis/def2-svp.gbs 


         ---------------------------------------------------------
                                   SCF
               by Justin Turney, Rob Parrish, Andy Simmonett
                          and Daniel G. A. Smith
                              RKS Reference
                        4 Threads,   3814 MiB Core
         ---------------------------------------------------------

  ==> Geometry <==

    Molecular point group: c1
    Full point group: C1

    Geometry (in Angstrom), charge = 0, multiplicity = 1:

       Center              X                  Y                   Z               Mass       
    ------------   -----------------  -----------------  -----------------  -----------------
         C            1.096739162806    -0.018949719487    -0.544252296887    12.000000000000
         C            0.224811612406    -1.277326211787    -0.581555244787    12.000000000000
         C            0.218666684006     1.228140388913    -0.681251172187    12.000000000000
         C           -0.910727084794    -1.243018146487     0.435143026913    12.000000000000
         C           -0.916590015594     1.269105259213     0.335473937213    12.000000000000
         C           -1.765618337694     0.006301131913     0.265229402513    12.000000000000
         C            1.986164348906     0.032476640813     0.692960354613    12.000000000000
         H            1.761976189106    -0.051959312787    -1.415512123087     1.007825032230
         H            0.847013349906    -2.165166776987    -0.426821740387     1.007825032230
         H           -0.208425005994    -1.373240273687    -1.584922144487     1.007825032230
         H           -0.215066195694     1.241716706713    -1.688881186887     1.007825032230
         H            0.836423913406     2.128570421113    -0.597896341887     1.007825032230
         H           -0.502916370794    -1.267547073587     1.452381852613     1.007825032230
         H           -1.526781933694    -2.141643722487     0.332927268713     1.007825032230
         H           -1.536813134494     2.153978478013     0.162780342513     1.007825032230
         H           -0.508808756294     1.375857564413     1.347407799113     1.007825032230
         H           -2.269148583094    -0.033567839187    -0.709474620487     1.007825032230
         H           -2.555470779394     0.034502410113     1.022093373913     1.007825032230
         H            2.628692027506     0.916941250713     0.673608975913     1.007825032230
         H            1.409142519406     0.068322436713     1.619748218513     1.007825032230
         H            2.632625430206    -0.847821117587     0.744293395913     1.007825032230

  Running in c1 symmetry.

  Rotational constants: A =      0.11798  B =      0.08488  C =      0.06450 [cm^-1]
  Rotational constants: A =   3537.00271  B =   2544.63395  C =   1933.68807 [MHz]
  Nuclear repulsion =  333.886463115406457

  Charge       = 0
  Multiplicity = 1
  Electrons    = 56
  Nalpha       = 28
  Nbeta        = 28

  ==> Algorithm <==

  SCF Algorithm Type is DF.
  DIIS enabled.
  MOM disabled.
  Fractional occupation disabled.
  Guess Type is SAD.
  Energy threshold   = 1.00e-06
  Density threshold  = 1.00e-06
  Integral threshold = 0.00e+00

  ==> Primary Basis <==

  Basis Set: DEF2-SVP
    Blend: DEF2-SVP
    Number of shells: 84
    Number of basis function: 168
    Number of Cartesian functions: 175
    Spherical Harmonics?: true
    Max angular momentum: 2

  ==> DFT Potential <==

   => Composite Functional: PBE0 <= 

    PBE0 Hyb-GGA Exchange-Correlation Functional

    C. Adamo and V. Barone, J. Chem. Phys. 110, 6158 (1999)
    M. Ernzerhof and G. E. Scuseria, J. Chem. Phys. 110, 5029 (1999)

    Deriv               =              1
    GGA                 =           TRUE
    Meta                =          FALSE

    Exchange Hybrid     =           TRUE
    MP2 Hybrid          =          FALSE

   => Exchange Functionals <=

    0.7500   Perdew, Burke & Ernzerhof

   => Exact (HF) Exchange <=

    0.2500               HF 

   => Correlation Functionals <=

    1.0000   Perdew, Burke & Ernzerhof

   => Molecular Quadrature <=

    Radial Scheme          =       TREUTLER
    Pruning Scheme         =           FLAT
    Nuclear Scheme         =       TREUTLER

    BS radius alpha        =              1
    Pruning alpha          =              1
    Radial Points          =             75
    Spherical Points       =            302
    Total Points           =         469461
    Total Blocks           =           3444
    Max Points             =            256
    Max Functions          =            167

   => Loading Basis Set <=

    Name: (DEF2-SVP AUX)
    Role: JKFIT
    Keyword: DF_BASIS_SCF
    atoms 1-7  entry C          line   203 file /usr/share/psi4/basis/def2-svp-jkfit.gbs 
    atoms 8-21 entry H          line    23 file /usr/share/psi4/basis/def2-svp-jkfit.gbs 

  ==> Pre-Iterations <==

   -------------------------------------------------------
    Irrep   Nso     Nmo     Nalpha   Nbeta   Ndocc  Nsocc
   -------------------------------------------------------
     A        168     168       0       0       0       0
   -------------------------------------------------------
    Total     168     168      28      28      28       0
   -------------------------------------------------------

  ==> Integral Setup <==

  DFHelper Memory: AOs need 0.172 GiB; user supplied 1.110 GiB. Using in-core AOs.

  ==> MemDFJK: Density-Fitted J/K Matrices <==

    J tasked:                   Yes
    K tasked:                   Yes
    wK tasked:                   No
    OpenMP threads:               4
    Memory [MiB]:              1136
    Algorithm:                 Core
    Schwarz Cutoff:           1E-12
    Mask sparsity (%):       1.3322
    Fitting Condition:        1E-10

   => Auxiliary Basis Set <=

  Basis Set: (DEF2-SVP AUX)
    Blend: DEF2-SVP-JKFIT
    Number of shells: 259
    Number of basis function: 777
    Number of Cartesian functions: 903
    Spherical Harmonics?: true
    Max angular momentum: 4

  Cached 100.0% of DFT collocation blocks in 1.684 [GiB].

  Minimum eigenvalue in the overlap matrix is 1.3735295283E-03.
  Using Symmetric Orthogonalization.

  SCF Guess: Superposition of Atomic Densities via on-the-fly atomic UHF.

  ==> Iterations <==

                           Total Energy        Delta E     RMS |[F,P]|

   @DF-RKS iter SAD:  -274.33779899359070   -2.74338e+02   0.00000e+00 
   @DF-RKS iter   1:  -274.07311941156621    2.64680e-01   6.06698e-03 DIIS
   @DF-RKS iter   2:  -273.70993228780048    3.63187e-01   7.88586e-03 DIIS
   @DF-RKS iter   3:  -274.65351177780963   -9.43579e-01   6.38972e-04 DIIS
   @DF-RKS iter   4:  -274.65821363629510   -4.70186e-03   2.20318e-04 DIIS
   @DF-RKS iter   5:  -274.65881904811391   -6.05412e-04   6.81985e-05 DIIS
   @DF-RKS iter   6:  -274.65888275116498   -6.37031e-05   7.97357e-06 DIIS
   @DF-RKS iter   7:  -274.65888362513198   -8.73967e-07   3.07411e-06 DIIS
   @DF-RKS iter   8:  -274.65888376207994   -1.36948e-07   5.69348e-07 DIIS
  Energy and wave function converged.


  ==> Post-Iterations <==

    Orbital Energies [Eh]
    ---------------------

    Doubly Occupied:                                                      

       1A    -10.227243     2A    -10.219944     3A    -10.219816  
       4A    -10.219755     5A    -10.219241     6A    -10.219214  
       7A    -10.215733     8A     -0.853446     9A     -0.774428  
      10A     -0.753112    11A     -0.688417    12A     -0.616534  
      13A     -0.604060    14A     -0.537895    15A     -0.498115  
      16A     -0.458556    17A     -0.456082    18A     -0.437531  
      19A     -0.411719    20A     -0.410397    21A     -0.385583  
      22A     -0.368991    23A     -0.363109    24A     -0.346515  
      25A     -0.341043    26A     -0.314852    27A     -0.301916  
      28A     -0.301914  

    Virtual:                                                              

      29A      0.059453    30A      0.080714    31A      0.100121  
      32A      0.109083    33A      0.126964    34A      0.130735  
      35A      0.145263    36A      0.151068    37A      0.154980  
      38A      0.157765    39A      0.166337    40A      0.179283  
      41A      0.200561    42A      0.205820    43A      0.225100  
      44A      0.233707    45A      0.248403    46A      0.254196  
      47A      0.268809    48A      0.295094    49A      0.295321  
      50A      0.420015    51A      0.430732    52A      0.440619  
      53A      0.450718    54A      0.464578    55A      0.467929  
      56A      0.472467    57A      0.549234    58A      0.613679  
      59A      0.624514    60A      0.632104    61A      0.649603  
      62A      0.651796    63A      0.659222    64A      0.662752  
      65A      0.669421    66A      0.675791    67A      0.681215  
      68A      0.690549    69A      0.700166    70A      0.703750  
      71A      0.709035    72A      0.716285    73A      0.723706  
      74A      0.725653    75A      0.736452    76A      0.738682  
      77A      0.742977    78A      0.755531    79A      0.763759  
      80A      0.768166    81A      0.792605    82A      0.810093  
      83A      0.849636    84A      0.896169    85A      0.978561  
      86A      1.065418    87A      1.090797    88A      1.104885  
      89A      1.152715    90A      1.152852    91A      1.177035  
      92A      1.268186    93A      1.283804    94A      1.284370  
      95A      1.294155    96A      1.308428    97A      1.353283  
      98A      1.384080    99A      1.514766   100A      1.540659  
     101A      1.566098   102A      1.590458   103A      1.625543  
     104A      1.695076   105A      1.725237   106A      1.756729  
     107A      1.760981   108A      1.767164   109A      1.772440  
     110A      1.807286   111A      1.816472   112A      1.829657  
     113A      1.833725   114A      1.834101   115A      1.857520  
     116A      1.861889   117A      1.872443   118A      1.885197  
     119A      1.886754   120A      1.891269   121A      1.904598  
     122A      1.920985   123A      1.932340   124A      1.939603  
     125A      1.940799   126A      1.942222   127A      2.002334  
     128A      2.044980   129A      2.048771   130A      2.052973  
     131A      2.083950   132A      2.100833   133A      2.112436  
     134A      2.116444   135A      2.258258   136A      2.262651  
     137A      2.298908   138A      2.300121   139A      2.315207  
     140A      2.341829   141A      2.393346   142A      2.420376  
     143A      2.487473   144A      2.490270   145A      2.532875  
     146A      2.540000   147A      2.585834   148A      2.600772  
     149A      2.628863   150A      2.636354   151A      2.639461  
     152A      2.679268   153A      2.679559   154A      2.760310  
     155A      2.860656   156A      2.876707   157A      2.917818  
     158A      2.930421   159A      2.964785   160A      2.969007  
     161A      3.007619   162A      3.045214   163A      3.076183  
     164A      3.081332   165A      3.094905   166A      3.112908  
     167A      3.135458   168A      3.199392  

    Final Occupation by Irrep:
              A 
    DOCC [    28 ]

  @DF-RKS Final Energy:  -274.65888376207994

   => Energetics <=

    Nuclear Repulsion Energy =            333.8864631154064568
    One-Electron Energy =               -1030.2780722847012385
    Two-Electron Energy =                 454.3331514489428855
    DFT Exchange-Correlation Energy =     -32.6004260417280918
    Empirical Dispersion Energy =           0.0000000000000000
    VV10 Nonlocal Energy =                  0.0000000000000000
    Total Energy =                       -274.6588837620799382

Computation Completed


Properties will be evaluated at   0.000000,   0.000000,   0.000000 [a0]

Properties computed using the SCF density matrix

  Nuclear Dipole Moment: [e a0]
     X:     0.7429      Y:     0.0365      Z:     0.8735

  Electronic Dipole Moment: [e a0]
     X:    -0.7402      Y:    -0.0370      Z:    -0.8851

  Dipole Moment: [e a0]
     X:     0.0027      Y:    -0.0004      Z:    -0.0117     Total:     0.0120

  Dipole Moment: [D]
     X:     0.0069      Y:    -0.0011      Z:    -0.0296     Total:     0.0304


*** tstop() called on thinkpad at Sat Jul 10 14:04:45 2021
Module time:
	user time   =      45.40 seconds =       0.76 minutes
	system time =       1.02 seconds =       0.02 minutes
	total time  =         15 seconds =       0.25 minutes
Total time:
	user time   =      45.40 seconds =       0.76 minutes
	system time =       1.02 seconds =       0.02 minutes
	total time  =         15 seconds =       0.25 minutes

    Psi4 stopped on: Saturday, 10 July 2021 02:04PM
    Psi4 wall time for execution: 0:00:15.02

*** Psi4 exiting successfully. Buy a developer a beer!
