
    -----------------------------------------------------------------------
          Psi4: An Open-Source Ab Initio Electronic Structure Package
                               Psi4 1.3.2 release

                         Git: Rev {} zzzzzzz 


    R. M. Parrish, L. A. Burns, D. G. A. Smith, A. C. Simmonett,
    A. E. DePrince III, E. G. Hohenstein, U. Bozkaya, A. Yu. Sokolov,
    R. Di Remigio, R. M. Richard, J. F. Gonthier, A. M. James,
    H. R. McAlexander, A. Kumar, M. Saitow, X. Wang, B. P. Pritchard,
    P. Verma, H. F. Schaefer III, K. Patkowski, R. A. King, E. F. Valeev,
    F. A. Evangelista, J. M. Turney, T. D. Crawford, and C. D. Sherrill,
    J. Chem. Theory Comput. 13(7) pp 3185--3197 (2017).
    (doi: 10.1021/acs.jctc.7b00174)


                         Additional Contributions by
    P. Kraus, H. Kruse, M. H. Lechner, M. C. Schieber, R. A. Shaw,
    A. Alenaizan, R. Galvelis, Z. L. Glick, S. Lehtola, and J. P. Misiewicz

    -----------------------------------------------------------------------


    Psi4 started on: Saturday, 10 July 2021 02:02PM

    Process ID: 1409323
    Host:       thinkpad
    PSIDATADIR: /usr/share/psi4
    Memory:     500.0 MiB
    Threads:    4
    
  ==> Input File <==

--------------------------------------------------------------------------
# PBE0/def2-SV(P) calculation on methylcyclohexane conformer #2 

memory 4 gb

molecule {
	    C     1.1134865843   0.0000601954  -0.5089087087
	    C     0.2420390682  -1.2537944021  -0.6238873628
	    C     0.2419792809   1.2538864618  -0.6237263195
	    C    -0.9258572029  -1.2569882693   0.3558910830
	    C    -0.9259138945   1.2568971843   0.3560562668
	    C    -1.7733690349  -0.0000550116   0.2075092045
	    C     1.9635709761  -0.0000025329   0.7567259476
	    H     1.8061401493   0.0001327039  -1.3591629729
	    H     0.8576836072  -2.1486699828  -0.4840861569
	    H    -0.1585149026  -1.3093741874  -1.6437935277
	    H    -0.1585790029   1.3095789194  -1.6436251076
	    H     0.8575801387   2.1487740172  -0.4838101972
	    H    -0.5514675761  -1.3224818821   1.3841297174
	    H    -1.5391270338  -2.1494848733   0.1983433729
	    H    -1.5392235832   2.1493868985   0.1986268789
	    H    -0.5515253450   1.3222722530   1.3843032168
	    H    -2.2443701954  -0.0000005041  -0.7841454961
	    H    -2.5878224306  -0.0001216243   0.9383495019
	    H     2.6072342236  -0.8831213151   0.7928829721
	    H     2.6071600769   0.8831643837   0.7930175612
	    H     1.3576335979  -0.0000979747   1.6655635342
}

set basis def2-SV(P)
energy('pbe0')
--------------------------------------------------------------------------

  Memory set to   3.725 GiB by Python driver.

*** tstart() called on thinkpad
*** at Sat Jul 10 14:02:45 2021

   => Loading Basis Set <=

    Name: DEF2-SV(P)
    Role: ORBITAL
    Keyword: BASIS
    atoms 1-7  entry C          line    88 file /usr/share/psi4/basis/def2-sv_p_.gbs 
    atoms 8-21 entry H          line    15 file /usr/share/psi4/basis/def2-sv_p_.gbs 


         ---------------------------------------------------------
                                   SCF
               by Justin Turney, Rob Parrish, Andy Simmonett
                          and Daniel G. A. Smith
                              RKS Reference
                        4 Threads,   3814 MiB Core
         ---------------------------------------------------------

  ==> Geometry <==

    Molecular point group: c1
    Full point group: C1

    Geometry (in Angstrom), charge = 0, multiplicity = 1:

       Center              X                  Y                   Z               Mass       
    ------------   -----------------  -----------------  -----------------  -----------------
         C            1.113486584316     0.000060195387    -0.508908708712    12.000000000000
         C            0.242039068216    -1.253794402113    -0.623887362812    12.000000000000
         C            0.241979280916     1.253886461787    -0.623726319512    12.000000000000
         C           -0.925857202884    -1.256988269313     0.355891082988    12.000000000000
         C           -0.925913894484     1.256897184287     0.356056266788    12.000000000000
         C           -1.773369034884    -0.000055011613     0.207509204488    12.000000000000
         C            1.963570976116    -0.000002532913     0.756725947588    12.000000000000
         H            1.806140149316     0.000132703887    -1.359162972912     1.007825032230
         H            0.857683607216    -2.148669982813    -0.484086156912     1.007825032230
         H           -0.158514902584    -1.309374187413    -1.643793527712     1.007825032230
         H           -0.158579002884     1.309578919387    -1.643625107612     1.007825032230
         H            0.857580138716     2.148774017187    -0.483810197212     1.007825032230
         H           -0.551467576084    -1.322481882113     1.384129717388     1.007825032230
         H           -1.539127033784    -2.149484873313     0.198343372888     1.007825032230
         H           -1.539223583184     2.149386898487     0.198626878888     1.007825032230
         H           -0.551525344984     1.322272252987     1.384303216788     1.007825032230
         H           -2.244370195384    -0.000000504113    -0.784145496112     1.007825032230
         H           -2.587822430584    -0.000121624313     0.938349501888     1.007825032230
         H            2.607234223616    -0.883121315113     0.792882972088     1.007825032230
         H            2.607160076916     0.883164383687     0.793017561188     1.007825032230
         H            1.357633597916    -0.000097974713     1.665563534188     1.007825032230

  Running in c1 symmetry.

  Rotational constants: A =      0.11801  B =      0.08487  C =      0.06449 [cm^-1]
  Rotational constants: A =   3537.89232  B =   2544.37938  C =   1933.21573 [MHz]
  Nuclear repulsion =  333.887771863626710

  Charge       = 0
  Multiplicity = 1
  Electrons    = 56
  Nalpha       = 28
  Nbeta        = 28

  ==> Algorithm <==

  SCF Algorithm Type is DF.
  DIIS enabled.
  MOM disabled.
  Fractional occupation disabled.
  Guess Type is SAD.
  Energy threshold   = 1.00e-06
  Density threshold  = 1.00e-06
  Integral threshold = 0.00e+00

  ==> Primary Basis <==

  Basis Set: DEF2-SV(P)
    Blend: DEF2-SV(P)
    Number of shells: 70
    Number of basis function: 126
    Number of Cartesian functions: 133
    Spherical Harmonics?: true
    Max angular momentum: 2

  ==> DFT Potential <==

   => Composite Functional: PBE0 <= 

    PBE0 Hyb-GGA Exchange-Correlation Functional

    C. Adamo and V. Barone, J. Chem. Phys. 110, 6158 (1999)
    M. Ernzerhof and G. E. Scuseria, J. Chem. Phys. 110, 5029 (1999)

    Deriv               =              1
    GGA                 =           TRUE
    Meta                =          FALSE

    Exchange Hybrid     =           TRUE
    MP2 Hybrid          =          FALSE

   => Exchange Functionals <=

    0.7500   Perdew, Burke & Ernzerhof

   => Exact (HF) Exchange <=

    0.2500               HF 

   => Correlation Functionals <=

    1.0000   Perdew, Burke & Ernzerhof

   => Molecular Quadrature <=

    Radial Scheme          =       TREUTLER
    Pruning Scheme         =           FLAT
    Nuclear Scheme         =       TREUTLER

    BS radius alpha        =              1
    Pruning alpha          =              1
    Radial Points          =             75
    Spherical Points       =            302
    Total Points           =         469460
    Total Blocks           =           3430
    Max Points             =            256
    Max Functions          =            125

   => Loading Basis Set <=

    Name: (DEF2-SV(P) AUX)
    Role: JKFIT
    Keyword: DF_BASIS_SCF
    atoms 1-7  entry C          line   203 file /usr/share/psi4/basis/def2-sv_p_-jkfit.gbs 
    atoms 8-21 entry H          line    23 file /usr/share/psi4/basis/def2-sv_p_-jkfit.gbs 

  ==> Pre-Iterations <==

   -------------------------------------------------------
    Irrep   Nso     Nmo     Nalpha   Nbeta   Ndocc  Nsocc
   -------------------------------------------------------
     A        126     126       0       0       0       0
   -------------------------------------------------------
    Total     126     126      28      28      28       0
   -------------------------------------------------------

  ==> Integral Setup <==

  DFHelper Memory: AOs need 0.100 GiB; user supplied 1.401 GiB. Using in-core AOs.

  ==> MemDFJK: Density-Fitted J/K Matrices <==

    J tasked:                   Yes
    K tasked:                   Yes
    wK tasked:                   No
    OpenMP threads:               4
    Memory [MiB]:              1434
    Algorithm:                 Core
    Schwarz Cutoff:           1E-12
    Mask sparsity (%):       0.3527
    Fitting Condition:        1E-10

   => Auxiliary Basis Set <=

  Basis Set: (DEF2-SV(P) AUX)
    Blend: DEF2-SV_P_-JKFIT
    Number of shells: 259
    Number of basis function: 777
    Number of Cartesian functions: 903
    Spherical Harmonics?: true
    Max angular momentum: 4

  Cached 100.0% of DFT collocation blocks in 1.393 [GiB].

  Minimum eigenvalue in the overlap matrix is 1.5293595515E-03.
  Using Symmetric Orthogonalization.

  SCF Guess: Superposition of Atomic Densities via on-the-fly atomic UHF.

  ==> Iterations <==

                           Total Energy        Delta E     RMS |[F,P]|

   @DF-RKS iter SAD:  -274.33832918596642   -2.74338e+02   0.00000e+00 
   @DF-RKS iter   1:  -274.03300409662103    3.05325e-01   8.19969e-03 DIIS
   @DF-RKS iter   2:  -273.68050494898023    3.52499e-01   1.04837e-02 DIIS
   @DF-RKS iter   3:  -274.62213149468636   -9.41627e-01   8.05415e-04 DIIS
   @DF-RKS iter   4:  -274.62635540231435   -4.22391e-03   2.87034e-04 DIIS
   @DF-RKS iter   5:  -274.62693538156458   -5.79979e-04   8.88999e-05 DIIS
   @DF-RKS iter   6:  -274.62699672259515   -6.13410e-05   8.83967e-06 DIIS
   @DF-RKS iter   7:  -274.62699732708899   -6.04494e-07   3.48780e-06 DIIS
   @DF-RKS iter   8:  -274.62699742452446   -9.74355e-08   7.01836e-07 DIIS
  Energy and wave function converged.


  ==> Post-Iterations <==

    Orbital Energies [Eh]
    ---------------------

    Doubly Occupied:                                                      

       1A    -10.225731     2A    -10.215874     3A    -10.215729  
       4A    -10.215674     5A    -10.215221     6A    -10.215202  
       7A    -10.208936     8A     -0.854337     9A     -0.775434  
      10A     -0.754166    11A     -0.689619    12A     -0.617989  
      13A     -0.605618    14A     -0.539787    15A     -0.499985  
      16A     -0.460732    17A     -0.458223    18A     -0.439469  
      19A     -0.413802    20A     -0.412256    21A     -0.387284  
      22A     -0.370596    23A     -0.365287    24A     -0.348269  
      25A     -0.343304    26A     -0.316890    27A     -0.303440  
      28A     -0.303328  

    Virtual:                                                              

      29A      0.059601    30A      0.080710    31A      0.100199  
      32A      0.109241    33A      0.127000    34A      0.130886  
      35A      0.145357    36A      0.151617    37A      0.155054  
      38A      0.157833    39A      0.166568    40A      0.179391  
      41A      0.200658    42A      0.205946    43A      0.225349  
      44A      0.234107    45A      0.248803    46A      0.255169  
      47A      0.268914    48A      0.295119    49A      0.296152  
      50A      0.424399    51A      0.437124    52A      0.448045  
      53A      0.459841    54A      0.474870    55A      0.477428  
      56A      0.485055    57A      0.573723    58A      0.630809  
      59A      0.636953    60A      0.644438    61A      0.658173  
      62A      0.678977    63A      0.682320    64A      0.696818  
      65A      0.698293    66A      0.701094    67A      0.711713  
      68A      0.718786    69A      0.730738    70A      0.730917  
      71A      0.743583    72A      0.744546    73A      0.745571  
      74A      0.748214    75A      0.755576    76A      0.757812  
      77A      0.767256    78A      0.784846    79A      0.791461  
      80A      0.801438    81A      0.827246    82A      0.855834  
      83A      0.890475    84A      0.925480    85A      1.009554  
      86A      1.092796    87A      1.163137    88A      1.189443  
      89A      1.208032    90A      1.315251    91A      1.326972  
      92A      1.371083    93A      1.380518    94A      1.563305  
      95A      1.611483    96A      1.699428    97A      1.728599  
      98A      1.792032    99A      1.806757   100A      1.826285  
     101A      1.910144   102A      1.936860   103A      1.955035  
     104A      1.971688   105A      1.983968   106A      2.004377  
     107A      2.091278   108A      2.112391   109A      2.113423  
     110A      2.121144   111A      2.206542   112A      2.227033  
     113A      2.255856   114A      2.295427   115A      2.317940  
     116A      2.336148   117A      2.374497   118A      2.392167  
     119A      2.449110   120A      2.555388   121A      2.652114  
     122A      2.656582   123A      2.685917   124A      2.711286  
     125A      2.722815   126A      2.772035  

    Final Occupation by Irrep:
              A 
    DOCC [    28 ]

  @DF-RKS Final Energy:  -274.62699742452446

   => Energetics <=

    Nuclear Repulsion Energy =            333.8877718636267105
    One-Electron Energy =               -1030.2045944398389565
    Two-Electron Energy =                 454.2898605065979609
    DFT Exchange-Correlation Energy =     -32.6000353549102471
    Empirical Dispersion Energy =           0.0000000000000000
    VV10 Nonlocal Energy =                  0.0000000000000000
    Total Energy =                       -274.6269974245244612

Computation Completed


Properties will be evaluated at   0.000000,   0.000000,   0.000000 [a0]

Properties computed using the SCF density matrix

  Nuclear Dipole Moment: [e a0]
     X:     0.7151      Y:    -0.0000      Z:     0.8968

  Electronic Dipole Moment: [e a0]
     X:    -0.7113      Y:     0.0000      Z:    -0.9087

  Dipole Moment: [e a0]
     X:     0.0038      Y:     0.0000      Z:    -0.0119     Total:     0.0125

  Dipole Moment: [D]
     X:     0.0098      Y:     0.0000      Z:    -0.0302     Total:     0.0317


*** tstop() called on thinkpad at Sat Jul 10 14:02:56 2021
Module time:
	user time   =      33.71 seconds =       0.56 minutes
	system time =       0.76 seconds =       0.01 minutes
	total time  =         11 seconds =       0.18 minutes
Total time:
	user time   =      33.71 seconds =       0.56 minutes
	system time =       0.76 seconds =       0.01 minutes
	total time  =         11 seconds =       0.18 minutes

    Psi4 stopped on: Saturday, 10 July 2021 02:02PM
    Psi4 wall time for execution: 0:00:11.82

*** Psi4 exiting successfully. Buy a developer a beer!
