
    -----------------------------------------------------------------------
          Psi4: An Open-Source Ab Initio Electronic Structure Package
                               Psi4 1.3.2 release

                         Git: Rev {} zzzzzzz 


    R. M. Parrish, L. A. Burns, D. G. A. Smith, A. C. Simmonett,
    A. E. DePrince III, E. G. Hohenstein, U. Bozkaya, A. Yu. Sokolov,
    R. Di Remigio, R. M. Richard, J. F. Gonthier, A. M. James,
    H. R. McAlexander, A. Kumar, M. Saitow, X. Wang, B. P. Pritchard,
    P. Verma, H. F. Schaefer III, K. Patkowski, R. A. King, E. F. Valeev,
    F. A. Evangelista, J. M. Turney, T. D. Crawford, and C. D. Sherrill,
    J. Chem. Theory Comput. 13(7) pp 3185--3197 (2017).
    (doi: 10.1021/acs.jctc.7b00174)


                         Additional Contributions by
    P. Kraus, H. Kruse, M. H. Lechner, M. C. Schieber, R. A. Shaw,
    A. Alenaizan, R. Galvelis, Z. L. Glick, S. Lehtola, and J. P. Misiewicz

    -----------------------------------------------------------------------


    Psi4 started on: Tuesday, 18 January 2022 09:44PM

    Process ID: 835361
    Host:       lenovo
    PSIDATADIR: /usr/share/psi4
    Memory:     500.0 MiB
    Threads:    4
    
  ==> Input File <==

--------------------------------------------------------------------------
# PBE0/def2-TZVP calculation on methylcyclohexane conformer #3 

memory 4 gb

molecule {
	    C    -1.0847725685   0.0976610825  -0.4269486177
	    C    -0.2698286331   1.2632156387   0.1518459996
	    C    -0.2064731988  -1.1590011569  -0.5835254873
	    C     1.1768592218   1.2148149812  -0.3150011265
	    C     0.9073632537  -1.1919128461   0.4526424034
	    C     1.8846981078  -0.0300906667   0.2374596405
	    C    -2.3170183281  -0.1754578965   0.4224861901
	    H    -1.4252224679   0.3936204591  -1.4264545578
	    H    -0.2943853849   1.2160561614   1.2480726357
	    H    -0.7398522975   2.2129762511  -0.1197664510
	    H     0.2423860527  -1.1790207230  -1.5827271443
	    H    -0.8297626199  -2.0557369873  -0.5127267397
	    H     1.7137734802   2.1193450789  -0.0171833746
	    H     1.1926687761   1.1999861347  -1.4106391729
	    H     1.4401448988  -2.1460138025   0.4197189705
	    H     0.4667241381  -1.1283670621   1.4537331255
	    H     2.6787063228  -0.3355753250  -0.4508708907
	    H     2.3775904019   0.2113515366   1.1842119500
	    H    -2.9090967022   0.7328018070   0.5666285472
	    H    -2.9622182726  -0.9275147374  -0.0392110358
	    H    -2.0329280334  -0.5428668226   1.4140188414
}

# It is beneficial to initialize larger-basis calculations with
# a small reasonable basis; use def2-SV(P) for this purpose
set basis_guess def2-SV(P)
set basis def2-TZVP
energy('pbe0')
--------------------------------------------------------------------------

  Memory set to   3.725 GiB by Python driver.

*** tstart() called on lenovo
*** at Tue Jan 18 21:44:14 2022


  //>>>>>>>>>>>>>>>>>>>>>>>>>>>>>>>>>>>//
  //    Guess SCF, DEF2-SV(P) Basis    //
  //<<<<<<<<<<<<<<<<<<<<<<<<<<<<<<<<<<<//

   => Loading Basis Set <=

    Name: DEF2-SV(P)
    Role: ORBITAL
    Keyword: BASIS
    atoms 1-7  entry C          line    88 file /usr/share/psi4/basis/def2-sv_p_.gbs 
    atoms 8-21 entry H          line    15 file /usr/share/psi4/basis/def2-sv_p_.gbs 


         ---------------------------------------------------------
                           SCF Castup computation                  
         ---------------------------------------------------------
                                   SCF
               by Justin Turney, Rob Parrish, Andy Simmonett
                          and Daniel G. A. Smith
                              RKS Reference
                        4 Threads,   3814 MiB Core
         ---------------------------------------------------------

  ==> Geometry <==

    Molecular point group: c1
    Full point group: C1

    Geometry (in Angstrom), charge = 0, multiplicity = 1:

       Center              X                  Y                   Z               Mass       
    ------------   -----------------  -----------------  -----------------  -----------------
         C           -1.084772568488     0.097661082507    -0.426948617689    12.000000000000
         C           -0.269828633088     1.263215638707     0.151845999611    12.000000000000
         C           -0.206473198788    -1.159001156893    -0.583525487289    12.000000000000
         C            1.176859221812     1.214814981207    -0.315001126489    12.000000000000
         C            0.907363253712    -1.191912846093     0.452642403411    12.000000000000
         C            1.884698107812    -0.030090666693     0.237459640511    12.000000000000
         C           -2.317018328088    -0.175457896493     0.422486190111    12.000000000000
         H           -1.425222467888     0.393620459107    -1.426454557789     1.007825032230
         H           -0.294385384888     1.216056161407     1.248072635711     1.007825032230
         H           -0.739852297488     2.212976251107    -0.119766450989     1.007825032230
         H            0.242386052712    -1.179020722993    -1.582727144289     1.007825032230
         H           -0.829762619888    -2.055736987293    -0.512726739689     1.007825032230
         H            1.713773480212     2.119345078907    -0.017183374589     1.007825032230
         H            1.192668776112     1.199986134707    -1.410639172889     1.007825032230
         H            1.440144898812    -2.146013802493     0.419718970511     1.007825032230
         H            0.466724138112    -1.128367062093     1.453733125511     1.007825032230
         H            2.678706322812    -0.335575324993    -0.450870890689     1.007825032230
         H            2.377590401912     0.211351536607     1.184211950011     1.007825032230
         H           -2.909096702188     0.732801807007     0.566628547211     1.007825032230
         H           -2.962218272588    -0.927514737393    -0.039211035789     1.007825032230
         H           -2.032928033388    -0.542866822593     1.414018841411     1.007825032230

  Running in c1 symmetry.

  Rotational constants: A =      0.13633  B =      0.07598  C =      0.05807 [cm^-1]
  Rotational constants: A =   4086.98332  B =   2277.95767  C =   1740.89289 [MHz]
  Nuclear repulsion =  331.726266423276911

  Charge       = 0
  Multiplicity = 1
  Electrons    = 56
  Nalpha       = 28
  Nbeta        = 28

  ==> Algorithm <==

  SCF Algorithm Type is DF.
  DIIS enabled.
  MOM disabled.
  Fractional occupation disabled.
  Guess Type is SAD.
  Energy threshold   = 1.00e-06
  Density threshold  = 1.00e-06
  Integral threshold = 0.00e+00

  ==> Primary Basis <==

  Basis Set: DEF2-SV(P)
    Blend: DEF2-SV(P)
    Number of shells: 70
    Number of basis function: 126
    Number of Cartesian functions: 133
    Spherical Harmonics?: true
    Max angular momentum: 2

  ==> DFT Potential <==

   => Composite Functional: PBE0 <= 

    PBE0 Hyb-GGA Exchange-Correlation Functional

    C. Adamo and V. Barone, J. Chem. Phys. 110, 6158 (1999)
    M. Ernzerhof and G. E. Scuseria, J. Chem. Phys. 110, 5029 (1999)

    Deriv               =              1
    GGA                 =           TRUE
    Meta                =          FALSE

    Exchange Hybrid     =           TRUE
    MP2 Hybrid          =          FALSE

   => Exchange Functionals <=

    0.7500   Perdew, Burke & Ernzerhof

   => Exact (HF) Exchange <=

    0.2500               HF 

   => Correlation Functionals <=

    1.0000   Perdew, Burke & Ernzerhof

   => Molecular Quadrature <=

    Radial Scheme          =       TREUTLER
    Pruning Scheme         =           FLAT
    Nuclear Scheme         =       TREUTLER

    BS radius alpha        =              1
    Pruning alpha          =              1
    Radial Points          =             75
    Spherical Points       =            302
    Total Points           =         469440
    Total Blocks           =           3437
    Max Points             =            256
    Max Functions          =            125

   => Loading Basis Set <=

    Name: (DEF2-SV(P) AUX)
    Role: JKFIT
    Keyword: DF_BASIS_SCF
    atoms 1-7  entry C          line   203 file /usr/share/psi4/basis/def2-sv_p_-jkfit.gbs 
    atoms 8-21 entry H          line    23 file /usr/share/psi4/basis/def2-sv_p_-jkfit.gbs 

  ==> Pre-Iterations <==

   -------------------------------------------------------
    Irrep   Nso     Nmo     Nalpha   Nbeta   Ndocc  Nsocc
   -------------------------------------------------------
     A        126     126       0       0       0       0
   -------------------------------------------------------
    Total     126     126      28      28      28       0
   -------------------------------------------------------

  ==> Integral Setup <==

  ==> DiskDFJK: Density-Fitted J/K Matrices <==

    J tasked:                  Yes
    K tasked:                  Yes
    wK tasked:                  No
    OpenMP threads:              4
    Integrals threads:           4
    Memory [MiB]:             1448
    Algorithm:                Core
    Integral Cache:           NONE
    Schwarz Cutoff:          1E-12
    Fitting Condition:       1E-10

   => Auxiliary Basis Set <=

  Basis Set: (DEF2-SV(P) AUX)
    Blend: DEF2-SV_P_-JKFIT
    Number of shells: 259
    Number of basis function: 777
    Number of Cartesian functions: 903
    Spherical Harmonics?: true
    Max angular momentum: 4

  Cached 100.0% of DFT collocation blocks in 1.379 [GiB].

  Minimum eigenvalue in the overlap matrix is 7.9464945137E-04.
  Using Symmetric Orthogonalization.

  SCF Guess: Superposition of Atomic Densities via on-the-fly atomic UHF.

  ==> Iterations <==

                           Total Energy        Delta E     RMS |[F,P]|

   @DF-RKS iter SAD:  -274.32125552445058   -2.74321e+02   0.00000e+00 
   @DF-RKS iter   1:  -274.03335147620601    2.87904e-01   8.13073e-03 DIIS
   @DF-RKS iter   2:  -273.71341369561333    3.19938e-01   1.02283e-02 DIIS
   @DF-RKS iter   3:  -274.61391515047330   -9.00501e-01   8.12898e-04 DIIS
   @DF-RKS iter   4:  -274.61814726368550   -4.23211e-03   3.13299e-04 DIIS
   @DF-RKS iter   5:  -274.61886503561527   -7.17772e-04   8.06653e-05 DIIS
   @DF-RKS iter   6:  -274.61891598757001   -5.09520e-05   8.53390e-06 DIIS
   @DF-RKS iter   7:  -274.61891654513323   -5.57563e-07   3.33831e-06 DIIS
   @DF-RKS iter   8:  -274.61891663294796   -8.78147e-08   7.31991e-07 DIIS
  Energy and wave function converged.


  ==> Post-Iterations <==

    Orbital Energies [Eh]
    ---------------------

    Doubly Occupied:                                                      

       1A    -10.225517     2A    -10.216078     3A    -10.215996  
       4A    -10.215925     5A    -10.214913     6A    -10.214723  
       7A    -10.209004     8A     -0.854232     9A     -0.775930  
      10A     -0.751461    11A     -0.685531    12A     -0.629211  
      13A     -0.596522    14A     -0.530444    15A     -0.503331  
      16A     -0.489231    17A     -0.451628    18A     -0.426684  
      19A     -0.411072    20A     -0.400925    21A     -0.385100  
      22A     -0.370550    23A     -0.365616    24A     -0.358553  
      25A     -0.346015    26A     -0.308081    27A     -0.305379  
      28A     -0.303229  

    Virtual:                                                              

      29A      0.059820    30A      0.080173    31A      0.093934  
      32A      0.112416    33A      0.124689    34A      0.134999  
      35A      0.138579    36A      0.144531    37A      0.154765  
      38A      0.161424    39A      0.169068    40A      0.184134  
      41A      0.190902    42A      0.195157    43A      0.217398  
      44A      0.219174    45A      0.247963    46A      0.272143  
      47A      0.284777    48A      0.308632    49A      0.322192  
      50A      0.431591    51A      0.443102    52A      0.457524  
      53A      0.460555    54A      0.485015    55A      0.497936  
      56A      0.504380    57A      0.572357    58A      0.614819  
      59A      0.633545    60A      0.640859    61A      0.649115  
      62A      0.660444    63A      0.675001    64A      0.681623  
      65A      0.695711    66A      0.706142    67A      0.717330  
      68A      0.722820    69A      0.727154    70A      0.732750  
      71A      0.733808    72A      0.739676    73A      0.746151  
      74A      0.755636    75A      0.757205    76A      0.767032  
      77A      0.769732    78A      0.772902    79A      0.776609  
      80A      0.791494    81A      0.800063    82A      0.845170  
      83A      0.852911    84A      0.974566    85A      1.010882  
      86A      1.062570    87A      1.091392    88A      1.106385  
      89A      1.200752    90A      1.309979    91A      1.346223  
      92A      1.422203    93A      1.455838    94A      1.636803  
      95A      1.705633    96A      1.710112    97A      1.759789  
      98A      1.771644    99A      1.794708   100A      1.838829  
     101A      1.884876   102A      1.909840   103A      1.947396  
     104A      1.961760   105A      2.001209   106A      2.030033  
     107A      2.050490   108A      2.087761   109A      2.096311  
     110A      2.144553   111A      2.183999   112A      2.216916  
     113A      2.235713   114A      2.311105   115A      2.335416  
     116A      2.344319   117A      2.404109   118A      2.427437  
     119A      2.481918   120A      2.492443   121A      2.537050  
     122A      2.641682   123A      2.703366   124A      2.712434  
     125A      2.769790   126A      2.810242  

    Final Occupation by Irrep:
              A 
    DOCC [    28 ]

  @DF-RKS Final Energy:  -274.61891663294796

   => Energetics <=

    Nuclear Repulsion Energy =            331.7262664232769112
    One-Electron Energy =               -1025.8899404317164681
    Two-Electron Energy =                 452.1419332793674926
    DFT Exchange-Correlation Energy =     -32.5971759038759359
    Empirical Dispersion Energy =           0.0000000000000000
    VV10 Nonlocal Energy =                  0.0000000000000000
    Total Energy =                       -274.6189166329480145

Computation Completed

  //>>>>>>>>>>>>>>>>>>>>>>>>>>>>>>>>>>>//
  //                PBE0               //
  //<<<<<<<<<<<<<<<<<<<<<<<<<<<<<<<<<<<//

   => Loading Basis Set <=

    Name: DEF2-TZVP
    Role: ORBITAL
    Keyword: BASIS
    atoms 1-7  entry C          line   123 file /usr/share/psi4/basis/def2-tzvp.gbs 
    atoms 8-21 entry H          line    15 file /usr/share/psi4/basis/def2-tzvp.gbs 


         ---------------------------------------------------------
                                   SCF
               by Justin Turney, Rob Parrish, Andy Simmonett
                          and Daniel G. A. Smith
                              RKS Reference
                        4 Threads,   3814 MiB Core
         ---------------------------------------------------------

  ==> Geometry <==

    Molecular point group: c1
    Full point group: C1

    Geometry (in Angstrom), charge = 0, multiplicity = 1:

       Center              X                  Y                   Z               Mass       
    ------------   -----------------  -----------------  -----------------  -----------------
         C           -1.084772568488     0.097661082507    -0.426948617689    12.000000000000
         C           -0.269828633088     1.263215638707     0.151845999611    12.000000000000
         C           -0.206473198788    -1.159001156893    -0.583525487289    12.000000000000
         C            1.176859221812     1.214814981207    -0.315001126489    12.000000000000
         C            0.907363253712    -1.191912846093     0.452642403411    12.000000000000
         C            1.884698107812    -0.030090666693     0.237459640511    12.000000000000
         C           -2.317018328088    -0.175457896493     0.422486190111    12.000000000000
         H           -1.425222467888     0.393620459107    -1.426454557789     1.007825032230
         H           -0.294385384888     1.216056161407     1.248072635711     1.007825032230
         H           -0.739852297488     2.212976251107    -0.119766450989     1.007825032230
         H            0.242386052712    -1.179020722993    -1.582727144289     1.007825032230
         H           -0.829762619888    -2.055736987293    -0.512726739689     1.007825032230
         H            1.713773480212     2.119345078907    -0.017183374589     1.007825032230
         H            1.192668776112     1.199986134707    -1.410639172889     1.007825032230
         H            1.440144898812    -2.146013802493     0.419718970511     1.007825032230
         H            0.466724138112    -1.128367062093     1.453733125511     1.007825032230
         H            2.678706322812    -0.335575324993    -0.450870890689     1.007825032230
         H            2.377590401912     0.211351536607     1.184211950011     1.007825032230
         H           -2.909096702188     0.732801807007     0.566628547211     1.007825032230
         H           -2.962218272588    -0.927514737393    -0.039211035789     1.007825032230
         H           -2.032928033388    -0.542866822593     1.414018841411     1.007825032230

  Running in c1 symmetry.

  Rotational constants: A =      0.13633  B =      0.07598  C =      0.05807 [cm^-1]
  Rotational constants: A =   4086.98332  B =   2277.95767  C =   1740.89289 [MHz]
  Nuclear repulsion =  331.726266423276911

  Charge       = 0
  Multiplicity = 1
  Electrons    = 56
  Nalpha       = 28
  Nbeta        = 28

  ==> Algorithm <==

  SCF Algorithm Type is DF.
  DIIS enabled.
  MOM disabled.
  Fractional occupation disabled.
  Guess Type is SAD.
  Energy threshold   = 1.00e-06
  Density threshold  = 1.00e-06
  Integral threshold = 0.00e+00

  ==> Primary Basis <==

  Basis Set: DEF2-TZVP
    Blend: DEF2-TZVP
    Number of shells: 133
    Number of basis function: 301
    Number of Cartesian functions: 336
    Spherical Harmonics?: true
    Max angular momentum: 3

  ==> DFT Potential <==

   => Composite Functional: PBE0 <= 

    PBE0 Hyb-GGA Exchange-Correlation Functional

    C. Adamo and V. Barone, J. Chem. Phys. 110, 6158 (1999)
    M. Ernzerhof and G. E. Scuseria, J. Chem. Phys. 110, 5029 (1999)

    Deriv               =              1
    GGA                 =           TRUE
    Meta                =          FALSE

    Exchange Hybrid     =           TRUE
    MP2 Hybrid          =          FALSE

   => Exchange Functionals <=

    0.7500   Perdew, Burke & Ernzerhof

   => Exact (HF) Exchange <=

    0.2500               HF 

   => Correlation Functionals <=

    1.0000   Perdew, Burke & Ernzerhof

   => Molecular Quadrature <=

    Radial Scheme          =       TREUTLER
    Pruning Scheme         =           FLAT
    Nuclear Scheme         =       TREUTLER

    BS radius alpha        =              1
    Pruning alpha          =              1
    Radial Points          =             75
    Spherical Points       =            302
    Total Points           =         472053
    Total Blocks           =           3443
    Max Points             =            256
    Max Functions          =            291

   => Loading Basis Set <=

    Name: (DEF2-TZVP AUX)
    Role: JKFIT
    Keyword: DF_BASIS_SCF
    atoms 1-7  entry C          line   203 file /usr/share/psi4/basis/def2-tzvp-jkfit.gbs 
    atoms 8-21 entry H          line    23 file /usr/share/psi4/basis/def2-tzvp-jkfit.gbs 


  Computing basis projection from DEF2-SV(P) to DEF2-TZVP

  ==> Pre-Iterations <==

   -------------------------------------------------------
    Irrep   Nso     Nmo     Nalpha   Nbeta   Ndocc  Nsocc
   -------------------------------------------------------
     A        301     301       0       0       0       0
   -------------------------------------------------------
    Total     301     301      28      28      28       0
   -------------------------------------------------------

  ==> Integral Setup <==

  DFHelper Memory: AOs need 0.536 GiB; user supplied 0.536 GiB. Using in-core AOs.

  ==> MemDFJK: Density-Fitted J/K Matrices <==

    J tasked:                   Yes
    K tasked:                   Yes
    wK tasked:                   No
    OpenMP threads:               4
    Memory [MiB]:               549
    Algorithm:                 Core
    Schwarz Cutoff:           1E-12
    Mask sparsity (%):       2.6115
    Fitting Condition:        1E-10

   => Auxiliary Basis Set <=

  Basis Set: (DEF2-TZVP AUX)
    Blend: DEF2-TZVP-JKFIT
    Number of shells: 259
    Number of basis function: 777
    Number of Cartesian functions: 903
    Spherical Harmonics?: true
    Max angular momentum: 4

  Cached 100.0% of DFT collocation blocks in 2.987 [GiB].

  Minimum eigenvalue in the overlap matrix is 4.8351718564E-05.
  Using Symmetric Orthogonalization.

  SCF Guess: Orbitals guess was supplied from a previous computation.

  ==> Iterations <==

                           Total Energy        Delta E     RMS |[F,P]|

   @DF-RKS iter   0:  -274.77974465935483   -2.74780e+02   5.32322e-03 
   @DF-RKS iter   1:  -274.93612895543646   -1.56384e-01   1.13500e-04 DIIS
   @DF-RKS iter   2:  -274.93607898921260    4.99662e-05   1.23961e-04 DIIS
   @DF-RKS iter   3:  -274.93677802254456   -6.99033e-04   1.75647e-05 DIIS
   @DF-RKS iter   4:  -274.93678970842325   -1.16859e-05   6.50887e-06 DIIS
   @DF-RKS iter   5:  -274.93679145720091   -1.74878e-06   1.01796e-06 DIIS
   @DF-RKS iter   6:  -274.93679149921161   -4.20107e-08   2.27218e-07 DIIS
  Energy and wave function converged.


  ==> Post-Iterations <==

    Orbital Energies [Eh]
    ---------------------

    Doubly Occupied:                                                      

       1A    -10.217288     2A    -10.209054     3A    -10.208797  
       4A    -10.208682     5A    -10.207583     6A    -10.207462  
       7A    -10.202594     8A     -0.859236     9A     -0.781764  
      10A     -0.757235    11A     -0.691330    12A     -0.633408  
      13A     -0.600814    14A     -0.533461    15A     -0.501747  
      16A     -0.487496    17A     -0.449785    18A     -0.425310  
      19A     -0.409282    20A     -0.399171    21A     -0.382562  
      22A     -0.368442    23A     -0.363410    24A     -0.356478  
      25A     -0.343892    26A     -0.305808    27A     -0.303128  
      28A     -0.300946  

    Virtual:                                                              

      29A      0.039137    30A      0.059216    31A      0.068471  
      32A      0.084362    33A      0.099853    34A      0.102777  
      35A      0.108411    36A      0.114265    37A      0.123839  
      38A      0.126336    39A      0.137278    40A      0.146066  
      41A      0.158558    42A      0.163459    43A      0.184352  
      44A      0.188842    45A      0.203916    46A      0.216197  
      47A      0.221953    48A      0.233607    49A      0.241941  
      50A      0.247315    51A      0.251741    52A      0.265679  
      53A      0.274201    54A      0.281850    55A      0.301248  
      56A      0.319778    57A      0.322971    58A      0.347206  
      59A      0.371520    60A      0.390048    61A      0.408392  
      62A      0.414610    63A      0.417051    64A      0.423341  
      65A      0.427013    66A      0.432764    67A      0.435021  
      68A      0.442028    69A      0.453681    70A      0.457617  
      71A      0.460959    72A      0.469334    73A      0.470612  
      74A      0.475159    75A      0.485464    76A      0.489799  
      77A      0.498466    78A      0.508990    79A      0.521052  
      80A      0.531543    81A      0.537441    82A      0.551438  
      83A      0.581352    84A      0.610616    85A      0.628420  
      86A      0.647971    87A      0.663378    88A      0.672976  
      89A      0.689468    90A      0.713706    91A      0.778853  
      92A      0.801177    93A      0.819917    94A      0.830641  
      95A      0.838853    96A      0.856129    97A      0.887794  
      98A      0.907846    99A      0.917380   100A      0.933413  
     101A      0.957542   102A      0.961241   103A      0.976966  
     104A      0.998655   105A      1.032593   106A      1.035805  
     107A      1.043288   108A      1.066581   109A      1.105684  
     110A      1.106941   111A      1.131411   112A      1.154249  
     113A      1.160351   114A      1.181093   115A      1.195887  
     116A      1.207062   117A      1.237951   118A      1.241805  
     119A      1.253371   120A      1.267080   121A      1.280318  
     122A      1.293619   123A      1.316432   124A      1.361594  
     125A      1.441681   126A      1.447686   127A      1.515851  
     128A      1.529909   129A      1.536579   130A      1.568495  
     131A      1.576329   132A      1.585907   133A      1.606874  
     134A      1.616890   135A      1.631104   136A      1.637332  
     137A      1.643312   138A      1.652431   139A      1.669880  
     140A      1.684208   141A      1.703591   142A      1.715067  
     143A      1.737031   144A      1.754812   145A      1.775711  
     146A      1.794444   147A      1.805936   148A      1.840272  
     149A      1.878178   150A      1.892516   151A      1.903828  
     152A      1.925301   153A      1.941981   154A      1.961115  
     155A      1.975064   156A      1.981592   157A      2.019761  
     158A      2.023085   159A      2.058508   160A      2.083381  
     161A      2.092193   162A      2.113656   163A      2.131131  
     164A      2.184596   165A      2.191673   166A      2.244927  
     167A      2.269828   168A      2.296549   169A      2.317151  
     170A      2.348389   171A      2.367617   172A      2.372223  
     173A      2.396355   174A      2.412045   175A      2.431605  
     176A      2.447864   177A      2.455599   178A      2.474502  
     179A      2.487214   180A      2.503959   181A      2.539832  
     182A      2.558110   183A      2.567485   184A      2.581634  
     185A      2.594863   186A      2.602194   187A      2.618970  
     188A      2.624040   189A      2.650144   190A      2.653924  
     191A      2.678600   192A      2.692028   193A      2.697997  
     194A      2.713307   195A      2.717612   196A      2.729540  
     197A      2.737243   198A      2.766287   199A      2.789063  
     200A      2.802197   201A      2.824166   202A      2.828665  
     203A      2.846269   204A      2.867161   205A      2.870758  
     206A      2.891008   207A      2.898379   208A      2.952919  
     209A      2.999052   210A      3.006373   211A      3.030191  
     212A      3.066930   213A      3.087726   214A      3.095329  
     215A      3.123838   216A      3.151386   217A      3.165605  
     218A      3.174898   219A      3.183099   220A      3.191835  
     221A      3.210524   222A      3.227483   223A      3.251227  
     224A      3.268568   225A      3.286279   226A      3.293410  
     227A      3.322270   228A      3.340621   229A      3.359777  
     230A      3.380815   231A      3.384395   232A      3.395449  
     233A      3.405361   234A      3.414542   235A      3.440735  
     236A      3.451612   237A      3.476693   238A      3.510672  
     239A      3.524557   240A      3.530492   241A      3.541046  
     242A      3.576933   243A      3.590869   244A      3.598977  
     245A      3.627534   246A      3.646625   247A      3.665320  
     248A      3.675557   249A      3.701996   250A      3.728639  
     251A      3.782947   252A      3.821522   253A      3.837966  
     254A      3.846367   255A      3.882130   256A      3.901494  
     257A      3.930252   258A      3.947985   259A      3.955236  
     260A      3.977111   261A      4.022978   262A      4.046162  
     263A      4.071359   264A      4.085900   265A      4.098665  
     266A      4.127285   267A      4.141665   268A      4.166049  
     269A      4.195517   270A      4.213641   271A      4.238549  
     272A      4.280106   273A      4.297439   274A      4.398546  
     275A      4.415433   276A      4.449589   277A      4.472957  
     278A      4.504458   279A      4.528472   280A      4.561674  
     281A      4.596907   282A      4.630983   283A      4.642227  
     284A      4.682243   285A      4.714190   286A      4.813439  
     287A      4.859678   288A      4.888496   289A      4.936896  
     290A      4.958213   291A      5.022112   292A      5.028642  
     293A      5.073013   294A      5.110045   295A     22.464716  
     296A     22.469267   297A     22.568128   298A     22.595060  
     299A     22.638340   300A     22.708388   301A     22.754347  

    Final Occupation by Irrep:
              A 
    DOCC [    28 ]

  @DF-RKS Final Energy:  -274.93679149921161

   => Energetics <=

    Nuclear Repulsion Energy =            331.7262664232769112
    One-Electron Energy =               -1026.5655914638055037
    Two-Electron Energy =                 452.5661273714725894
    DFT Exchange-Correlation Energy =     -32.6635938301555484
    Empirical Dispersion Energy =           0.0000000000000000
    VV10 Nonlocal Energy =                  0.0000000000000000
    Total Energy =                       -274.9367914992115516

Computation Completed


Properties will be evaluated at   0.000000,   0.000000,   0.000000 [a0]

Properties computed using the SCF density matrix

  Nuclear Dipole Moment: [e a0]
     X:    -1.0138      Y:    -0.2146      Z:     0.6814

  Electronic Dipole Moment: [e a0]
     X:     1.0332      Y:     0.2274      Z:    -0.7182

  Dipole Moment: [e a0]
     X:     0.0193      Y:     0.0127      Z:    -0.0369     Total:     0.0435

  Dipole Moment: [D]
     X:     0.0492      Y:     0.0324      Z:    -0.0937     Total:     0.1107


*** tstop() called on lenovo at Tue Jan 18 21:44:52 2022
Module time:
	user time   =     126.91 seconds =       2.12 minutes
	system time =       2.34 seconds =       0.04 minutes
	total time  =         38 seconds =       0.63 minutes
Total time:
	user time   =     126.91 seconds =       2.12 minutes
	system time =       2.34 seconds =       0.04 minutes
	total time  =         38 seconds =       0.63 minutes

    Psi4 stopped on: Tuesday, 18 January 2022 09:44PM
    Psi4 wall time for execution: 0:00:38.49

*** Psi4 exiting successfully. Buy a developer a beer!
