
    -----------------------------------------------------------------------
          Psi4: An Open-Source Ab Initio Electronic Structure Package
                               Psi4 1.3.2 release

                         Git: Rev {} zzzzzzz 


    R. M. Parrish, L. A. Burns, D. G. A. Smith, A. C. Simmonett,
    A. E. DePrince III, E. G. Hohenstein, U. Bozkaya, A. Yu. Sokolov,
    R. Di Remigio, R. M. Richard, J. F. Gonthier, A. M. James,
    H. R. McAlexander, A. Kumar, M. Saitow, X. Wang, B. P. Pritchard,
    P. Verma, H. F. Schaefer III, K. Patkowski, R. A. King, E. F. Valeev,
    F. A. Evangelista, J. M. Turney, T. D. Crawford, and C. D. Sherrill,
    J. Chem. Theory Comput. 13(7) pp 3185--3197 (2017).
    (doi: 10.1021/acs.jctc.7b00174)


                         Additional Contributions by
    P. Kraus, H. Kruse, M. H. Lechner, M. C. Schieber, R. A. Shaw,
    A. Alenaizan, R. Galvelis, Z. L. Glick, S. Lehtola, and J. P. Misiewicz

    -----------------------------------------------------------------------


    Psi4 started on: Tuesday, 18 January 2022 09:41PM

    Process ID: 830556
    Host:       lenovo
    PSIDATADIR: /usr/share/psi4
    Memory:     500.0 MiB
    Threads:    4
    
  ==> Input File <==

--------------------------------------------------------------------------
# PBE0/def2-SVP calculation on methylcyclohexane conformer #1 

memory 4 gb

molecule {
	    C    -1.1095788642   0.0000421088  -0.5173760840
	    C    -0.2371911735   1.2538500872  -0.6256558751
	    C    -0.2373065295  -1.2538472571  -0.6256133330
	    C     0.9232150254   1.2569141188   0.3629919555
	    C     0.9230786172  -1.2569833692   0.3630567435
	    C     1.7717397798  -0.0000842569   0.2209982710
	    C    -1.9692772405   0.0001028398   0.7417473964
	    H    -1.7957314975   0.0000606184  -1.3728857462
	    H    -0.8538328424   2.1487527424  -0.4904864530
	    H     0.1711017413   1.3094516562  -1.6424906919
	    H     0.1710005695  -1.3095119892  -1.6424391841
	    H    -0.8540315594  -2.1486900871  -0.4904311434
	    H     0.5410089072   1.3223877590   1.3883671425
	    H     1.5377490490   2.1493641079   0.2101511831
	    H     1.5375182250  -2.1495093449   0.2102817571
	    H     0.5408436961  -1.3223517185   1.3884288345
	    H     2.2502712986  -0.0001344288  -0.7670543102
	    H     2.5806050116  -0.0001088940   0.9580214078
	    H    -1.3702856024  -0.0000265841   1.6551935732
	    H    -2.6130476994   0.8833324610   0.7731000135
	    H    -2.6132983885  -0.8829480869   0.7730149087
}

set basis def2-SVP
energy('pbe0')
--------------------------------------------------------------------------

  Memory set to   3.725 GiB by Python driver.

*** tstart() called on lenovo
*** at Tue Jan 18 21:41:24 2022

   => Loading Basis Set <=

    Name: DEF2-SVP
    Role: ORBITAL
    Keyword: BASIS
    atoms 1-7  entry C          line    90 file /usr/share/psi4/basis/def2-svp.gbs 
    atoms 8-21 entry H          line    15 file /usr/share/psi4/basis/def2-svp.gbs 


         ---------------------------------------------------------
                                   SCF
               by Justin Turney, Rob Parrish, Andy Simmonett
                          and Daniel G. A. Smith
                              RKS Reference
                        4 Threads,   3814 MiB Core
         ---------------------------------------------------------

  ==> Geometry <==

    Molecular point group: c1
    Full point group: C1

    Geometry (in Angstrom), charge = 0, multiplicity = 1:

       Center              X                  Y                   Z               Mass       
    ------------   -----------------  -----------------  -----------------  -----------------
         C           -1.109578864201     0.000042108780    -0.517376083992    12.000000000000
         C           -0.237191173501     1.253850087180    -0.625655875092    12.000000000000
         C           -0.237306529501    -1.253847257120    -0.625613332992    12.000000000000
         C            0.923215025399     1.256914118780     0.362991955508    12.000000000000
         C            0.923078617199    -1.256983369220     0.363056743508    12.000000000000
         C            1.771739779799    -0.000084256920     0.220998271008    12.000000000000
         C           -1.969277240501     0.000102839780     0.741747396408    12.000000000000
         H           -1.795731497501     0.000060618380    -1.372885746192     1.007825032230
         H           -0.853832842401     2.148752742380    -0.490486452992     1.007825032230
         H            0.171101741299     1.309451656180    -1.642490691892     1.007825032230
         H            0.171000569499    -1.309511989220    -1.642439184092     1.007825032230
         H           -0.854031559401    -2.148690087120    -0.490431143392     1.007825032230
         H            0.541008907199     1.322387758980     1.388367142508     1.007825032230
         H            1.537749048999     2.149364107880     0.210151183108     1.007825032230
         H            1.537518224999    -2.149509344920     0.210281757108     1.007825032230
         H            0.540843696099    -1.322351718520     1.388428834508     1.007825032230
         H            2.250271298599    -0.000134428820    -0.767054310192     1.007825032230
         H            2.580605011599    -0.000108894020     0.958021407808     1.007825032230
         H           -1.370285602401    -0.000026584120     1.655193573208     1.007825032230
         H           -2.613047699401     0.883332460980     0.773100013508     1.007825032230
         H           -2.613298388501    -0.882948086920     0.773014908708     1.007825032230

  Running in c1 symmetry.

  Rotational constants: A =      0.11801  B =      0.08487  C =      0.06448 [cm^-1]
  Rotational constants: A =   3537.86119  B =   2544.37041  C =   1933.20741 [MHz]
  Nuclear repulsion =  333.886610125007905

  Charge       = 0
  Multiplicity = 1
  Electrons    = 56
  Nalpha       = 28
  Nbeta        = 28

  ==> Algorithm <==

  SCF Algorithm Type is DF.
  DIIS enabled.
  MOM disabled.
  Fractional occupation disabled.
  Guess Type is SAD.
  Energy threshold   = 1.00e-06
  Density threshold  = 1.00e-06
  Integral threshold = 0.00e+00

  ==> Primary Basis <==

  Basis Set: DEF2-SVP
    Blend: DEF2-SVP
    Number of shells: 84
    Number of basis function: 168
    Number of Cartesian functions: 175
    Spherical Harmonics?: true
    Max angular momentum: 2

  ==> DFT Potential <==

   => Composite Functional: PBE0 <= 

    PBE0 Hyb-GGA Exchange-Correlation Functional

    C. Adamo and V. Barone, J. Chem. Phys. 110, 6158 (1999)
    M. Ernzerhof and G. E. Scuseria, J. Chem. Phys. 110, 5029 (1999)

    Deriv               =              1
    GGA                 =           TRUE
    Meta                =          FALSE

    Exchange Hybrid     =           TRUE
    MP2 Hybrid          =          FALSE

   => Exchange Functionals <=

    0.7500   Perdew, Burke & Ernzerhof

   => Exact (HF) Exchange <=

    0.2500               HF 

   => Correlation Functionals <=

    1.0000   Perdew, Burke & Ernzerhof

   => Molecular Quadrature <=

    Radial Scheme          =       TREUTLER
    Pruning Scheme         =           FLAT
    Nuclear Scheme         =       TREUTLER

    BS radius alpha        =              1
    Pruning alpha          =              1
    Radial Points          =             75
    Spherical Points       =            302
    Total Points           =         469460
    Total Blocks           =           3443
    Max Points             =            256
    Max Functions          =            167

   => Loading Basis Set <=

    Name: (DEF2-SVP AUX)
    Role: JKFIT
    Keyword: DF_BASIS_SCF
    atoms 1-7  entry C          line   203 file /usr/share/psi4/basis/def2-svp-jkfit.gbs 
    atoms 8-21 entry H          line    23 file /usr/share/psi4/basis/def2-svp-jkfit.gbs 

  ==> Pre-Iterations <==

   -------------------------------------------------------
    Irrep   Nso     Nmo     Nalpha   Nbeta   Ndocc  Nsocc
   -------------------------------------------------------
     A        168     168       0       0       0       0
   -------------------------------------------------------
    Total     168     168      28      28      28       0
   -------------------------------------------------------

  ==> Integral Setup <==

  DFHelper Memory: AOs need 0.172 GiB; user supplied 1.110 GiB. Using in-core AOs.

  ==> MemDFJK: Density-Fitted J/K Matrices <==

    J tasked:                   Yes
    K tasked:                   Yes
    wK tasked:                   No
    OpenMP threads:               4
    Memory [MiB]:              1136
    Algorithm:                 Core
    Schwarz Cutoff:           1E-12
    Mask sparsity (%):       1.3464
    Fitting Condition:        1E-10

   => Auxiliary Basis Set <=

  Basis Set: (DEF2-SVP AUX)
    Blend: DEF2-SVP-JKFIT
    Number of shells: 259
    Number of basis function: 777
    Number of Cartesian functions: 903
    Spherical Harmonics?: true
    Max angular momentum: 4

  Cached 100.0% of DFT collocation blocks in 1.684 [GiB].

  Minimum eigenvalue in the overlap matrix is 1.3731558282E-03.
  Using Symmetric Orthogonalization.

  SCF Guess: Superposition of Atomic Densities via on-the-fly atomic UHF.

  ==> Iterations <==

                           Total Energy        Delta E     RMS |[F,P]|

   @DF-RKS iter SAD:  -274.33825370474420   -2.74338e+02   0.00000e+00 
   @DF-RKS iter   1:  -274.07300156131066    2.65252e-01   6.06758e-03 DIIS
   @DF-RKS iter   2:  -273.70964066615511    3.63361e-01   7.88702e-03 DIIS
   @DF-RKS iter   3:  -274.65350899725075   -9.43868e-01   6.39084e-04 DIIS
   @DF-RKS iter   4:  -274.65821191797500   -4.70292e-03   2.20468e-04 DIIS
   @DF-RKS iter   5:  -274.65881821655148   -6.06299e-04   6.82112e-05 DIIS
   @DF-RKS iter   6:  -274.65888194443050   -6.37279e-05   7.97722e-06 DIIS
   @DF-RKS iter   7:  -274.65888281917222   -8.74742e-07   3.07535e-06 DIIS
   @DF-RKS iter   8:  -274.65888295622057   -1.37048e-07   5.69192e-07 DIIS
  Energy and wave function converged.


  ==> Post-Iterations <==

    Orbital Energies [Eh]
    ---------------------

    Doubly Occupied:                                                      

       1A    -10.227236     2A    -10.219927     3A    -10.219805  
       4A    -10.219742     5A    -10.219238     6A    -10.219212  
       7A    -10.215730     8A     -0.853470     9A     -0.774454  
      10A     -0.753145    11A     -0.688396    12A     -0.616540  
      13A     -0.604068    14A     -0.537899    15A     -0.498131  
      16A     -0.458553    17A     -0.456085    18A     -0.437514  
      19A     -0.411731    20A     -0.410443    21A     -0.385596  
      22A     -0.368994    23A     -0.363076    24A     -0.346519  
      25A     -0.341029    26A     -0.314827    27A     -0.301952  
      28A     -0.301902  

    Virtual:                                                              

      29A      0.059443    30A      0.080705    31A      0.100124  
      32A      0.109064    33A      0.126959    34A      0.130726  
      35A      0.145241    36A      0.151064    37A      0.154975  
      38A      0.157748    39A      0.166342    40A      0.179319  
      41A      0.200574    42A      0.205792    43A      0.225109  
      44A      0.233693    45A      0.248351    46A      0.254322  
      47A      0.268868    48A      0.295168    49A      0.295255  
      50A      0.419949    51A      0.430765    52A      0.440645  
      53A      0.450714    54A      0.464594    55A      0.467892  
      56A      0.472440    57A      0.549233    58A      0.613750  
      59A      0.624547    60A      0.632175    61A      0.649637  
      62A      0.651831    63A      0.659238    64A      0.662784  
      65A      0.669412    66A      0.675808    67A      0.681165  
      68A      0.690542    69A      0.700142    70A      0.703767  
      71A      0.709000    72A      0.716252    73A      0.723740  
      74A      0.725624    75A      0.736486    76A      0.738738  
      77A      0.742962    78A      0.755522    79A      0.763760  
      80A      0.768164    81A      0.792579    82A      0.809955  
      83A      0.849756    84A      0.896211    85A      0.978578  
      86A      1.065480    87A      1.090632    88A      1.104578  
      89A      1.152919    90A      1.152956    91A      1.177038  
      92A      1.268178    93A      1.283738    94A      1.284428  
      95A      1.294351    96A      1.308476    97A      1.353290  
      98A      1.384133    99A      1.514741   100A      1.540741  
     101A      1.566027   102A      1.590381   103A      1.625572  
     104A      1.694922   105A      1.725288   106A      1.756734  
     107A      1.761043   108A      1.767179   109A      1.772467  
     110A      1.807349   111A      1.816505   112A      1.829628  
     113A      1.833779   114A      1.834055   115A      1.857496  
     116A      1.861954   117A      1.872404   118A      1.885141  
     119A      1.886765   120A      1.891300   121A      1.904650  
     122A      1.921002   123A      1.932340   124A      1.939539  
     125A      1.940759   126A      1.942158   127A      2.002410  
     128A      2.044887   129A      2.048801   130A      2.053136  
     131A      2.083906   132A      2.100931   133A      2.112574  
     134A      2.116407   135A      2.258364   136A      2.262716  
     137A      2.298911   138A      2.300138   139A      2.315209  
     140A      2.341716   141A      2.393401   142A      2.420372  
     143A      2.487381   144A      2.490273   145A      2.532828  
     146A      2.540012   147A      2.585824   148A      2.600873  
     149A      2.628934   150A      2.636300   151A      2.639460  
     152A      2.679386   153A      2.679507   154A      2.760291  
     155A      2.860803   156A      2.876724   157A      2.917747  
     158A      2.930337   159A      2.964834   160A      2.969012  
     161A      3.007588   162A      3.045298   163A      3.076166  
     164A      3.081278   165A      3.094962   166A      3.112964  
     167A      3.135489   168A      3.199425  

    Final Occupation by Irrep:
              A 
    DOCC [    28 ]

  @DF-RKS Final Energy:  -274.65888295622057

   => Energetics <=

    Nuclear Repulsion Energy =            333.8866101250079055
    One-Electron Energy =               -1030.2781870228300249
    Two-Electron Energy =                 454.3332223018244349
    DFT Exchange-Correlation Energy =     -32.6005283602228744
    Empirical Dispersion Energy =           0.0000000000000000
    VV10 Nonlocal Energy =                  0.0000000000000000
    Total Energy =                       -274.6588829562205660

Computation Completed


Properties will be evaluated at   0.000000,   0.000000,   0.000000 [a0]

Properties computed using the SCF density matrix

  Nuclear Dipole Moment: [e a0]
     X:    -0.7220      Y:     0.0001      Z:     0.8913

  Electronic Dipole Moment: [e a0]
     X:     0.7191      Y:    -0.0001      Z:    -0.9030

  Dipole Moment: [e a0]
     X:    -0.0029      Y:    -0.0000      Z:    -0.0117     Total:     0.0121

  Dipole Moment: [D]
     X:    -0.0073      Y:    -0.0000      Z:    -0.0298     Total:     0.0307


*** tstop() called on lenovo at Tue Jan 18 21:41:39 2022
Module time:
	user time   =      46.33 seconds =       0.77 minutes
	system time =       1.20 seconds =       0.02 minutes
	total time  =         15 seconds =       0.25 minutes
Total time:
	user time   =      46.33 seconds =       0.77 minutes
	system time =       1.20 seconds =       0.02 minutes
	total time  =         15 seconds =       0.25 minutes

    Psi4 stopped on: Tuesday, 18 January 2022 09:41PM
    Psi4 wall time for execution: 0:00:15.64

*** Psi4 exiting successfully. Buy a developer a beer!
