
    -----------------------------------------------------------------------
          Psi4: An Open-Source Ab Initio Electronic Structure Package
                               Psi4 1.3.2 release

                         Git: Rev {} zzzzzzz 


    R. M. Parrish, L. A. Burns, D. G. A. Smith, A. C. Simmonett,
    A. E. DePrince III, E. G. Hohenstein, U. Bozkaya, A. Yu. Sokolov,
    R. Di Remigio, R. M. Richard, J. F. Gonthier, A. M. James,
    H. R. McAlexander, A. Kumar, M. Saitow, X. Wang, B. P. Pritchard,
    P. Verma, H. F. Schaefer III, K. Patkowski, R. A. King, E. F. Valeev,
    F. A. Evangelista, J. M. Turney, T. D. Crawford, and C. D. Sherrill,
    J. Chem. Theory Comput. 13(7) pp 3185--3197 (2017).
    (doi: 10.1021/acs.jctc.7b00174)


                         Additional Contributions by
    P. Kraus, H. Kruse, M. H. Lechner, M. C. Schieber, R. A. Shaw,
    A. Alenaizan, R. Galvelis, Z. L. Glick, S. Lehtola, and J. P. Misiewicz

    -----------------------------------------------------------------------


    Psi4 started on: Saturday, 10 July 2021 02:01PM

    Process ID: 1405130
    Host:       thinkpad
    PSIDATADIR: /usr/share/psi4
    Memory:     500.0 MiB
    Threads:    4
    
  ==> Input File <==

--------------------------------------------------------------------------
# PBE0/MINAO calculation on methylcyclohexane conformer #3 

memory 4 gb

molecule {
	    C     1.0216419245  -0.0001893047  -0.3161487792
	    C     0.2973378810  -1.2506189086   0.1775810939
	    C     0.2974575475   1.2506064200   0.1768888542
	    C    -1.1744365717  -1.2562548858  -0.2114123160
	    C    -1.1744003045   1.2563138446  -0.2118044939
	    C    -1.8832979544   0.0001086433   0.2763796821
	    C     2.5044935295   0.0000211444   0.0793266134
	    H     0.9512211911  -0.0006346245  -1.4122949918
	    H     0.3862894619  -1.2982365713   1.2715459249
	    H     0.7972905901  -2.1442785585  -0.2110917697
	    H     0.7974907920   2.1441281708  -0.2119996269
	    H     0.3864916794   1.2984938158   1.2708408296
	    H    -1.6669778433  -2.1498908639   0.1839200828
	    H    -1.2570179075  -1.3143309934  -1.3042533603
	    H    -1.2572891892   1.3142828167  -1.3046177348
	    H    -1.6667382460   2.1500405286   0.1835849215
	    H    -2.9272715623   0.0000773207  -0.0514713459
	    H    -1.9011221133   0.0002497318   1.3736480570
	    H     2.7616318183  -0.8827199494   0.6705925314
	    H     3.1617458457   0.0067799630  -0.7925468044
	    H     2.7583418418   0.8761945606   0.6816958235
}

set basis MINAO
energy('pbe0')
--------------------------------------------------------------------------

  Memory set to   3.725 GiB by Python driver.

*** tstart() called on thinkpad
*** at Sat Jul 10 14:01:57 2021

   => Loading Basis Set <=

    Name: MINAO
    Role: ORBITAL
    Keyword: BASIS
    atoms 1-7  entry C          line   128 file /home/susi/dokumentit/tutkimus/linuxchemistry/suppinfo/psi4/methylcyclohexane/minao.gbs 
    atoms 8-21 entry H          line    17 file /home/susi/dokumentit/tutkimus/linuxchemistry/suppinfo/psi4/methylcyclohexane/minao.gbs 


         ---------------------------------------------------------
                                   SCF
               by Justin Turney, Rob Parrish, Andy Simmonett
                          and Daniel G. A. Smith
                              RKS Reference
                        4 Threads,   3814 MiB Core
         ---------------------------------------------------------

  ==> Geometry <==

    Molecular point group: c1
    Full point group: C1

    Geometry (in Angstrom), charge = 0, multiplicity = 1:

       Center              X                  Y                   Z               Mass       
    ------------   -----------------  -----------------  -----------------  -----------------
         C            1.021641924501    -0.000189304710    -0.316148779207    12.000000000000
         C            0.297337881001    -1.250618908610     0.177581093893    12.000000000000
         C            0.297457547501     1.250606419990     0.176888854193    12.000000000000
         C           -1.174436571699    -1.256254885810    -0.211412316007    12.000000000000
         C           -1.174400304499     1.256313844590    -0.211804493907    12.000000000000
         C           -1.883297954399     0.000108643290     0.276379682093    12.000000000000
         C            2.504493529501     0.000021144390     0.079326613393    12.000000000000
         H            0.951221191101    -0.000634624510    -1.412294991807     1.007825032230
         H            0.386289461901    -1.298236571310     1.271545924893     1.007825032230
         H            0.797290590101    -2.144278558510    -0.211091769707     1.007825032230
         H            0.797490792001     2.144128170790    -0.211999626907     1.007825032230
         H            0.386491679401     1.298493815790     1.270840829593     1.007825032230
         H           -1.666977843299    -2.149890863910     0.183920082793     1.007825032230
         H           -1.257017907499    -1.314330993410    -1.304253360307     1.007825032230
         H           -1.257289189199     1.314282816690    -1.304617734807     1.007825032230
         H           -1.666738245999     2.150040528590     0.183584921493     1.007825032230
         H           -2.927271562299     0.000077320690    -0.051471345907     1.007825032230
         H           -1.901122113299     0.000249731790     1.373648056993     1.007825032230
         H            2.761631818301    -0.882719949410     0.670592531393     1.007825032230
         H            3.161745845701     0.006779962990    -0.792546804407     1.007825032230
         H            2.758341841801     0.876194560590     0.681695823493     1.007825032230

  Running in c1 symmetry.

  Rotational constants: A =      0.14193  B =      0.07301  C =      0.05318 [cm^-1]
  Rotational constants: A =   4255.03817  B =   2188.69819  C =   1594.21738 [MHz]
  Nuclear repulsion =  329.521155999122357

  Charge       = 0
  Multiplicity = 1
  Electrons    = 56
  Nalpha       = 28
  Nbeta        = 28

  ==> Algorithm <==

  SCF Algorithm Type is DF.
  DIIS enabled.
  MOM disabled.
  Fractional occupation disabled.
  Guess Type is SAD.
  Energy threshold   = 1.00e-06
  Density threshold  = 1.00e-06
  Integral threshold = 0.00e+00

  ==> Primary Basis <==

  Basis Set: MINAO
    Blend: MINAO
    Number of shells: 35
    Number of basis function: 49
    Number of Cartesian functions: 49
    Spherical Harmonics?: true
    Max angular momentum: 1

  ==> DFT Potential <==

   => Composite Functional: PBE0 <= 

    PBE0 Hyb-GGA Exchange-Correlation Functional

    C. Adamo and V. Barone, J. Chem. Phys. 110, 6158 (1999)
    M. Ernzerhof and G. E. Scuseria, J. Chem. Phys. 110, 5029 (1999)

    Deriv               =              1
    GGA                 =           TRUE
    Meta                =          FALSE

    Exchange Hybrid     =           TRUE
    MP2 Hybrid          =          FALSE

   => Exchange Functionals <=

    0.7500   Perdew, Burke & Ernzerhof

   => Exact (HF) Exchange <=

    0.2500               HF 

   => Correlation Functionals <=

    1.0000   Perdew, Burke & Ernzerhof

   => Molecular Quadrature <=

    Radial Scheme          =       TREUTLER
    Pruning Scheme         =           FLAT
    Nuclear Scheme         =       TREUTLER

    BS radius alpha        =              1
    Pruning alpha          =              1
    Radial Points          =             75
    Spherical Points       =            302
    Total Points           =         470511
    Total Blocks           =           3457
    Max Points             =            256
    Max Functions          =             49

   => Loading Basis Set <=

    Name: (MINAO AUX)
    Role: JKFIT
    Keyword: DF_BASIS_SCF
    atoms 1-7  entry C          line   203 file /usr/share/psi4/basis/def2-qzvpp-jkfit.gbs 
    atoms 8-21 entry H          line    23 file /usr/share/psi4/basis/def2-qzvpp-jkfit.gbs 

  ==> Pre-Iterations <==

   -------------------------------------------------------
    Irrep   Nso     Nmo     Nalpha   Nbeta   Ndocc  Nsocc
   -------------------------------------------------------
     A         49      49       0       0       0       0
   -------------------------------------------------------
    Total      49      49      28      28      28       0
   -------------------------------------------------------

  ==> Integral Setup <==

  DFHelper Memory: AOs need 0.019 GiB; user supplied 2.112 GiB. Using in-core AOs.

  ==> MemDFJK: Density-Fitted J/K Matrices <==

    J tasked:                   Yes
    K tasked:                   Yes
    wK tasked:                   No
    OpenMP threads:               4
    Memory [MiB]:              2163
    Algorithm:                 Core
    Schwarz Cutoff:           1E-12
    Mask sparsity (%):       0.0000
    Fitting Condition:        1E-10

   => Auxiliary Basis Set <=

  Basis Set: (MINAO AUX)
    Blend: DEF2-QZVPP-JKFIT
    Number of shells: 259
    Number of basis function: 777
    Number of Cartesian functions: 903
    Spherical Harmonics?: true
    Max angular momentum: 4

  Cached 100.0% of DFT collocation blocks in 0.682 [GiB].

  Minimum eigenvalue in the overlap matrix is 1.6943719279E-01.
  Using Symmetric Orthogonalization.

  SCF Guess: Superposition of Atomic Densities via on-the-fly atomic UHF.

  ==> Iterations <==

                           Total Energy        Delta E     RMS |[F,P]|

   @DF-RKS iter SAD:  -273.67648019721582   -2.73676e+02   0.00000e+00 
   @DF-RKS iter   1:  -274.24974208323562   -5.73262e-01   4.57352e-03 DIIS
   @DF-RKS iter   2:  -274.26047899696044   -1.07369e-02   3.97288e-03 DIIS
   @DF-RKS iter   3:  -274.28600347345690   -2.55245e-02   1.20027e-04 DIIS
   @DF-RKS iter   4:  -274.28601712731995   -1.36539e-05   8.40238e-05 DIIS
   @DF-RKS iter   5:  -274.28602808195683   -1.09546e-05   4.41914e-06 DIIS
   @DF-RKS iter   6:  -274.28602811670680   -3.47500e-08   5.72647e-07 DIIS
  Energy and wave function converged.


  ==> Post-Iterations <==

    Orbital Energies [Eh]
    ---------------------

    Doubly Occupied:                                                      

       1A    -10.399025     2A    -10.389851     3A    -10.389754  
       4A    -10.389616     5A    -10.384809     6A    -10.384793  
       7A    -10.381524     8A     -0.947239     9A     -0.870857  
      10A     -0.847462    11A     -0.776000    12A     -0.706016  
      13A     -0.681876    14A     -0.634434    15A     -0.564305  
      16A     -0.537411    17A     -0.527977    18A     -0.526007  
      19A     -0.511963    20A     -0.480371    21A     -0.474679  
      22A     -0.466816    23A     -0.451351    24A     -0.432923  
      25A     -0.422939    26A     -0.407434    27A     -0.397711  
      28A     -0.396908  

    Virtual:                                                              

      29A      0.167043    30A      0.170115    31A      0.183576  
      32A      0.196487    33A      0.205989    34A      0.226717  
      35A      0.241393    36A      0.263266    37A      0.267231  
      38A      0.268481    39A      0.275691    40A      0.279656  
      41A      0.300661    42A      0.311639    43A      0.328617  
      44A      0.336173    45A      0.342135    46A      0.347832  
      47A      0.364692    48A      0.393516    49A      0.397552  

    Final Occupation by Irrep:
              A 
    DOCC [    28 ]

  @DF-RKS Final Energy:  -274.28602811670680

   => Energetics <=

    Nuclear Repulsion Energy =            329.5211559991223567
    One-Electron Energy =               -1015.2467234350455101
    Two-Electron Energy =                 443.3753511578970006
    DFT Exchange-Correlation Energy =     -31.9358118386806566
    Empirical Dispersion Energy =           0.0000000000000000
    VV10 Nonlocal Energy =                  0.0000000000000000
    Total Energy =                       -274.2860281167068024

Computation Completed


Properties will be evaluated at   0.000000,   0.000000,   0.000000 [a0]

Properties computed using the SCF density matrix

  Nuclear Dipole Moment: [e a0]
     X:     1.2413      Y:     0.0001      Z:     0.3258

  Electronic Dipole Moment: [e a0]
     X:    -1.2459      Y:    -0.0001      Z:    -0.3421

  Dipole Moment: [e a0]
     X:    -0.0046      Y:     0.0001      Z:    -0.0163     Total:     0.0169

  Dipole Moment: [D]
     X:    -0.0116      Y:     0.0002      Z:    -0.0414     Total:     0.0430


*** tstop() called on thinkpad at Sat Jul 10 14:02:05 2021
Module time:
	user time   =      18.63 seconds =       0.31 minutes
	system time =       0.35 seconds =       0.01 minutes
	total time  =          8 seconds =       0.13 minutes
Total time:
	user time   =      18.63 seconds =       0.31 minutes
	system time =       0.35 seconds =       0.01 minutes
	total time  =          8 seconds =       0.13 minutes

    Psi4 stopped on: Saturday, 10 July 2021 02:02PM
    Psi4 wall time for execution: 0:00:08.30

*** Psi4 exiting successfully. Buy a developer a beer!
