
    -----------------------------------------------------------------------
          Psi4: An Open-Source Ab Initio Electronic Structure Package
                               Psi4 1.3.2 release

                         Git: Rev {} zzzzzzz 


    R. M. Parrish, L. A. Burns, D. G. A. Smith, A. C. Simmonett,
    A. E. DePrince III, E. G. Hohenstein, U. Bozkaya, A. Yu. Sokolov,
    R. Di Remigio, R. M. Richard, J. F. Gonthier, A. M. James,
    H. R. McAlexander, A. Kumar, M. Saitow, X. Wang, B. P. Pritchard,
    P. Verma, H. F. Schaefer III, K. Patkowski, R. A. King, E. F. Valeev,
    F. A. Evangelista, J. M. Turney, T. D. Crawford, and C. D. Sherrill,
    J. Chem. Theory Comput. 13(7) pp 3185--3197 (2017).
    (doi: 10.1021/acs.jctc.7b00174)


                         Additional Contributions by
    P. Kraus, H. Kruse, M. H. Lechner, M. C. Schieber, R. A. Shaw,
    A. Alenaizan, R. Galvelis, Z. L. Glick, S. Lehtola, and J. P. Misiewicz

    -----------------------------------------------------------------------


    Psi4 started on: Saturday, 10 July 2021 02:02PM

    Process ID: 1406684
    Host:       thinkpad
    PSIDATADIR: /usr/share/psi4
    Memory:     500.0 MiB
    Threads:    4
    
  ==> Input File <==

--------------------------------------------------------------------------
# PBE0/MINAO calculation on methylcyclohexane conformer #5 

memory 4 gb

molecule {
	    C     0.9720996685   0.0330695729  -0.3318897492
	    C     0.3235569756  -1.3050446844   0.0554571038
	    C     0.2796016137   1.1705482584   0.4083746420
	    C    -1.1703681178  -1.1739962880   0.3782545344
	    C    -1.1870623309   1.3075102013  -0.0197810080
	    C    -1.8008398350  -0.0410841244  -0.4173023050
	    C     2.4717812077   0.0115000082  -0.0918548430
	    H     0.8079059374   0.1951056591  -1.4056578331
	    H     0.8501585016  -1.7189944260   0.9229279740
	    H     0.4706158944  -2.0219579368  -0.7590601820
	    H     0.8106120207   2.1131540195   0.2443816225
	    H     0.3431013654   0.9716027139   1.4853446212
	    H    -1.3044229007  -0.9707204650   1.4466600017
	    H    -1.6833375404  -2.1197620265   0.1839905214
	    H    -1.2647997277   2.0046582787  -0.8596593487
	    H    -1.7639195440   1.7505989654   0.7978190433
	    H    -1.6401819754  -0.2256721328  -1.4853354173
	    H    -2.8844132340  -0.0195483901  -0.2732150587
	    H     2.9471805654   0.9310761445  -0.4436409694
	    H     2.6908179710  -0.0903298775   0.9759217704
	    H     2.9450889639  -0.8290126506  -0.6073234270
}

set basis MINAO
energy('pbe0')
--------------------------------------------------------------------------

  Memory set to   3.725 GiB by Python driver.

*** tstart() called on thinkpad
*** at Sat Jul 10 14:02:15 2021

   => Loading Basis Set <=

    Name: MINAO
    Role: ORBITAL
    Keyword: BASIS
    atoms 1-7  entry C          line   128 file /home/susi/dokumentit/tutkimus/linuxchemistry/suppinfo/psi4/methylcyclohexane/minao.gbs 
    atoms 8-21 entry H          line    17 file /home/susi/dokumentit/tutkimus/linuxchemistry/suppinfo/psi4/methylcyclohexane/minao.gbs 


         ---------------------------------------------------------
                                   SCF
               by Justin Turney, Rob Parrish, Andy Simmonett
                          and Daniel G. A. Smith
                              RKS Reference
                        4 Threads,   3814 MiB Core
         ---------------------------------------------------------

  ==> Geometry <==

    Molecular point group: c1
    Full point group: C1

    Geometry (in Angstrom), charge = 0, multiplicity = 1:

       Center              X                  Y                   Z               Mass       
    ------------   -----------------  -----------------  -----------------  -----------------
         C            0.972099668488     0.033069572888    -0.331889749202    12.000000000000
         C            0.323556975588    -1.305044684412     0.055457103798    12.000000000000
         C            0.279601613688     1.170548258388     0.408374641998    12.000000000000
         C           -1.170368117812    -1.173996288012     0.378254534398    12.000000000000
         C           -1.187062330912     1.307510201288    -0.019781008002    12.000000000000
         C           -1.800839835012    -0.041084124412    -0.417302305002    12.000000000000
         C            2.471781207688     0.011500008188    -0.091854843002    12.000000000000
         H            0.807905937388     0.195105659088    -1.405657833102     1.007825032230
         H            0.850158501588    -1.718994426012     0.922927973998     1.007825032230
         H            0.470615894388    -2.021957936812    -0.759060182002     1.007825032230
         H            0.810612020688     2.113154019488     0.244381622498     1.007825032230
         H            0.343101365388     0.971602713888     1.485344621198     1.007825032230
         H           -1.304422900712    -0.970720465012     1.446660001698     1.007825032230
         H           -1.683337540412    -2.119762026512     0.183990521398     1.007825032230
         H           -1.264799727712     2.004658278688    -0.859659348702     1.007825032230
         H           -1.763919544012     1.750598965388     0.797819043298     1.007825032230
         H           -1.640181975412    -0.225672132812    -1.485335417302     1.007825032230
         H           -2.884413234012    -0.019548390112    -0.273215058702     1.007825032230
         H            2.947180565388     0.931076144488    -0.443640969402     1.007825032230
         H            2.690817970988    -0.090329877512     0.975921770398     1.007825032230
         H            2.945088963888    -0.829012650612    -0.607323427002     1.007825032230

  Running in c1 symmetry.

  Rotational constants: A =      0.13921  B =      0.07423  C =      0.05482 [cm^-1]
  Rotational constants: A =   4173.31360  B =   2225.44463  C =   1643.37922 [MHz]
  Nuclear repulsion =  330.301052767388285

  Charge       = 0
  Multiplicity = 1
  Electrons    = 56
  Nalpha       = 28
  Nbeta        = 28

  ==> Algorithm <==

  SCF Algorithm Type is DF.
  DIIS enabled.
  MOM disabled.
  Fractional occupation disabled.
  Guess Type is SAD.
  Energy threshold   = 1.00e-06
  Density threshold  = 1.00e-06
  Integral threshold = 0.00e+00

  ==> Primary Basis <==

  Basis Set: MINAO
    Blend: MINAO
    Number of shells: 35
    Number of basis function: 49
    Number of Cartesian functions: 49
    Spherical Harmonics?: true
    Max angular momentum: 1

  ==> DFT Potential <==

   => Composite Functional: PBE0 <= 

    PBE0 Hyb-GGA Exchange-Correlation Functional

    C. Adamo and V. Barone, J. Chem. Phys. 110, 6158 (1999)
    M. Ernzerhof and G. E. Scuseria, J. Chem. Phys. 110, 5029 (1999)

    Deriv               =              1
    GGA                 =           TRUE
    Meta                =          FALSE

    Exchange Hybrid     =           TRUE
    MP2 Hybrid          =          FALSE

   => Exchange Functionals <=

    0.7500   Perdew, Burke & Ernzerhof

   => Exact (HF) Exchange <=

    0.2500               HF 

   => Correlation Functionals <=

    1.0000   Perdew, Burke & Ernzerhof

   => Molecular Quadrature <=

    Radial Scheme          =       TREUTLER
    Pruning Scheme         =           FLAT
    Nuclear Scheme         =       TREUTLER

    BS radius alpha        =              1
    Pruning alpha          =              1
    Radial Points          =             75
    Spherical Points       =            302
    Total Points           =         470557
    Total Blocks           =           3473
    Max Points             =            256
    Max Functions          =             49

   => Loading Basis Set <=

    Name: (MINAO AUX)
    Role: JKFIT
    Keyword: DF_BASIS_SCF
    atoms 1-7  entry C          line   203 file /usr/share/psi4/basis/def2-qzvpp-jkfit.gbs 
    atoms 8-21 entry H          line    23 file /usr/share/psi4/basis/def2-qzvpp-jkfit.gbs 

  ==> Pre-Iterations <==

   -------------------------------------------------------
    Irrep   Nso     Nmo     Nalpha   Nbeta   Ndocc  Nsocc
   -------------------------------------------------------
     A         49      49       0       0       0       0
   -------------------------------------------------------
    Total      49      49      28      28      28       0
   -------------------------------------------------------

  ==> Integral Setup <==

  DFHelper Memory: AOs need 0.019 GiB; user supplied 2.112 GiB. Using in-core AOs.

  ==> MemDFJK: Density-Fitted J/K Matrices <==

    J tasked:                   Yes
    K tasked:                   Yes
    wK tasked:                   No
    OpenMP threads:               4
    Memory [MiB]:              2162
    Algorithm:                 Core
    Schwarz Cutoff:           1E-12
    Mask sparsity (%):       0.0000
    Fitting Condition:        1E-10

   => Auxiliary Basis Set <=

  Basis Set: (MINAO AUX)
    Blend: DEF2-QZVPP-JKFIT
    Number of shells: 259
    Number of basis function: 777
    Number of Cartesian functions: 903
    Spherical Harmonics?: true
    Max angular momentum: 4

  Cached 100.0% of DFT collocation blocks in 0.682 [GiB].

  Minimum eigenvalue in the overlap matrix is 1.6596810090E-01.
  Using Symmetric Orthogonalization.

  SCF Guess: Superposition of Atomic Densities via on-the-fly atomic UHF.

  ==> Iterations <==

                           Total Energy        Delta E     RMS |[F,P]|

   @DF-RKS iter SAD:  -273.66445724459402   -2.73664e+02   0.00000e+00 
   @DF-RKS iter   1:  -274.24603718834766   -5.81580e-01   4.55330e-03 DIIS
   @DF-RKS iter   2:  -274.25648601077404   -1.04488e-02   3.96036e-03 DIIS
   @DF-RKS iter   3:  -274.28177473403002   -2.52887e-02   1.22437e-04 DIIS
   @DF-RKS iter   4:  -274.28178886400667   -1.41300e-05   8.53449e-05 DIIS
   @DF-RKS iter   5:  -274.28180012595493   -1.12619e-05   4.03974e-06 DIIS
   @DF-RKS iter   6:  -274.28180015509940   -2.91445e-08   5.13216e-07 DIIS
  Energy and wave function converged.


  ==> Post-Iterations <==

    Orbital Energies [Eh]
    ---------------------

    Doubly Occupied:                                                      

       1A    -10.398788     2A    -10.389260     3A    -10.389119  
       4A    -10.389015     5A    -10.384482     6A    -10.384405  
       7A    -10.382684     8A     -0.946912     9A     -0.870760  
      10A     -0.843027    11A     -0.775904    12A     -0.708137  
      13A     -0.687733    14A     -0.613966    15A     -0.572322  
      16A     -0.560090    17A     -0.534044    18A     -0.508014  
      19A     -0.498605    20A     -0.476163    21A     -0.471382  
      22A     -0.466565    23A     -0.454475    24A     -0.439945  
      25A     -0.434456    26A     -0.405334    27A     -0.396984  
      28A     -0.387079  

    Virtual:                                                              

      29A      0.161929    30A      0.165969    31A      0.184756  
      32A      0.193339    33A      0.220124    34A      0.222515  
      35A      0.231265    36A      0.241117    37A      0.257382  
      38A      0.266528    39A      0.274142    40A      0.282665  
      41A      0.301365    42A      0.316403    43A      0.326359  
      44A      0.335456    45A      0.340124    46A      0.340878  
      47A      0.391041    48A      0.400378    49A      0.412120  

    Final Occupation by Irrep:
              A 
    DOCC [    28 ]

  @DF-RKS Final Energy:  -274.28180015509940

   => Energetics <=

    Nuclear Repulsion Energy =            330.3010527673882848
    One-Electron Energy =               -1016.8235184575312360
    Two-Electron Energy =                 444.1753731178787916
    DFT Exchange-Correlation Energy =     -31.9347075828351805
    Empirical Dispersion Energy =           0.0000000000000000
    VV10 Nonlocal Energy =                  0.0000000000000000
    Total Energy =                       -274.2818001550994040

Computation Completed


Properties will be evaluated at   0.000000,   0.000000,   0.000000 [a0]

Properties computed using the SCF density matrix

  Nuclear Dipole Moment: [e a0]
     X:     1.2416      Y:    -0.0279      Z:     0.2092

  Electronic Dipole Moment: [e a0]
     X:    -1.2584      Y:     0.0255      Z:    -0.2280

  Dipole Moment: [e a0]
     X:    -0.0168      Y:    -0.0025      Z:    -0.0188     Total:     0.0253

  Dipole Moment: [D]
     X:    -0.0427      Y:    -0.0062      Z:    -0.0479     Total:     0.0644


*** tstop() called on thinkpad at Sat Jul 10 14:02:23 2021
Module time:
	user time   =      18.56 seconds =       0.31 minutes
	system time =       0.38 seconds =       0.01 minutes
	total time  =          8 seconds =       0.13 minutes
Total time:
	user time   =      18.56 seconds =       0.31 minutes
	system time =       0.38 seconds =       0.01 minutes
	total time  =          8 seconds =       0.13 minutes

    Psi4 stopped on: Saturday, 10 July 2021 02:02PM
    Psi4 wall time for execution: 0:00:08.22

*** Psi4 exiting successfully. Buy a developer a beer!
