
    -----------------------------------------------------------------------
          Psi4: An Open-Source Ab Initio Electronic Structure Package
                               Psi4 1.3.2 release

                         Git: Rev {} zzzzzzz 


    R. M. Parrish, L. A. Burns, D. G. A. Smith, A. C. Simmonett,
    A. E. DePrince III, E. G. Hohenstein, U. Bozkaya, A. Yu. Sokolov,
    R. Di Remigio, R. M. Richard, J. F. Gonthier, A. M. James,
    H. R. McAlexander, A. Kumar, M. Saitow, X. Wang, B. P. Pritchard,
    P. Verma, H. F. Schaefer III, K. Patkowski, R. A. King, E. F. Valeev,
    F. A. Evangelista, J. M. Turney, T. D. Crawford, and C. D. Sherrill,
    J. Chem. Theory Comput. 13(7) pp 3185--3197 (2017).
    (doi: 10.1021/acs.jctc.7b00174)


                         Additional Contributions by
    P. Kraus, H. Kruse, M. H. Lechner, M. C. Schieber, R. A. Shaw,
    A. Alenaizan, R. Galvelis, Z. L. Glick, S. Lehtola, and J. P. Misiewicz

    -----------------------------------------------------------------------


    Psi4 started on: Tuesday, 18 January 2022 09:40PM

    Process ID: 827324
    Host:       lenovo
    PSIDATADIR: /usr/share/psi4
    Memory:     500.0 MiB
    Threads:    4
    
  ==> Input File <==

--------------------------------------------------------------------------
# PBE0/STO-6G calculation on methylcyclohexane conformer #2 

memory 4 gb

molecule {
	    C    -0.9722110106  -0.0327178145  -0.3317394209
	    C    -0.3230575991   1.3051763356   0.0549465016
	    C    -0.2799358137  -1.1703549653   0.4084020749
	    C     1.1707491624   1.1735533229   0.3780596124
	    C     1.1865243780  -1.3080141347  -0.0202102127
	    C     1.8009202197   0.0403620054  -0.4174616034
	    C    -2.4717798740  -0.0105506963  -0.0908392374
	    H    -0.8087844643  -0.1950236872  -1.4056295336
	    H    -0.8495212096   1.7199328933   0.9221690658
	    H    -0.4695454065   2.0218373804  -0.7599221104
	    H    -0.8113728409  -2.1127804385   0.2447639560
	    H    -0.3428586988  -0.9712230168   1.4854308307
	    H     1.3043952140   0.9702107563   1.4465484474
	    H     1.6840387395   2.1191808048   0.1839931571
	    H     1.2636624230  -2.0050932080  -0.8602184482
	    H     1.7632973914  -1.7516361470   0.7971908469
	    H     1.6407454705   0.2251060645  -1.4855926815
	    H     2.8844283912   0.0183001103  -0.2730171679
	    H    -2.6900359915   0.0903337794   0.9772603697
	    H    -2.9448589677   0.8307839411  -0.6052679767
	    H    -2.9477420718  -0.9296150780  -0.4433568897
}

set basis STO-6G
energy('pbe0')
--------------------------------------------------------------------------

  Memory set to   3.725 GiB by Python driver.

*** tstart() called on lenovo
*** at Tue Jan 18 21:40:24 2022

   => Loading Basis Set <=

    Name: STO-6G
    Role: ORBITAL
    Keyword: BASIS
    atoms 1-7  entry C          line    83 file /home/susi/dokumentit/tutkimus/linuxchemistry/suppinfo/psi4/methylcyclohexane/sto-6g.gbs 
    atoms 8-21 entry H          line    17 file /home/susi/dokumentit/tutkimus/linuxchemistry/suppinfo/psi4/methylcyclohexane/sto-6g.gbs 


         ---------------------------------------------------------
                                   SCF
               by Justin Turney, Rob Parrish, Andy Simmonett
                          and Daniel G. A. Smith
                              RKS Reference
                        4 Threads,   3814 MiB Core
         ---------------------------------------------------------

  ==> Geometry <==

    Molecular point group: c1
    Full point group: C1

    Geometry (in Angstrom), charge = 0, multiplicity = 1:

       Center              X                  Y                   Z               Mass       
    ------------   -----------------  -----------------  -----------------  -----------------
         C           -0.972211010586    -0.032717814511    -0.331739420902    12.000000000000
         C           -0.323057599086     1.305176335589     0.054946501598    12.000000000000
         C           -0.279935813686    -1.170354965311     0.408402074898    12.000000000000
         C            1.170749162414     1.173553322889     0.378059612398    12.000000000000
         C            1.186524378014    -1.308014134711    -0.020210212702    12.000000000000
         C            1.800920219714     0.040362005389    -0.417461603402    12.000000000000
         C           -2.471779873986    -0.010550696311    -0.090839237402    12.000000000000
         H           -0.808784464286    -0.195023687211    -1.405629533602     1.007825032230
         H           -0.849521209586     1.719932893289     0.922169065798     1.007825032230
         H           -0.469545406486     2.021837380389    -0.759922110402     1.007825032230
         H           -0.811372840886    -2.112780438511     0.244763955998     1.007825032230
         H           -0.342858698786    -0.971223016811     1.485430830698     1.007825032230
         H            1.304395214014     0.970210756289     1.446548447398     1.007825032230
         H            1.684038739514     2.119180804789     0.183993157098     1.007825032230
         H            1.263662423014    -2.005093208011    -0.860218448202     1.007825032230
         H            1.763297391414    -1.751636147011     0.797190846898     1.007825032230
         H            1.640745470514     0.225106064489    -1.485592681502     1.007825032230
         H            2.884428391214     0.018300110289    -0.273017167902     1.007825032230
         H           -2.690035991486     0.090333779389     0.977260369698     1.007825032230
         H           -2.944858967686     0.830783941089    -0.605267976702     1.007825032230
         H           -2.947742071786    -0.929615078011    -0.443356889702     1.007825032230

  Running in c1 symmetry.

  Rotational constants: A =      0.13921  B =      0.07423  C =      0.05482 [cm^-1]
  Rotational constants: A =   4173.37434  B =   2225.48720  C =   1643.38170 [MHz]
  Nuclear repulsion =  330.300707310715211

  Charge       = 0
  Multiplicity = 1
  Electrons    = 56
  Nalpha       = 28
  Nbeta        = 28

  ==> Algorithm <==

  SCF Algorithm Type is DF.
  DIIS enabled.
  MOM disabled.
  Fractional occupation disabled.
  Guess Type is SAD.
  Energy threshold   = 1.00e-06
  Density threshold  = 1.00e-06
  Integral threshold = 0.00e+00

  ==> Primary Basis <==

  Basis Set: STO-6G
    Blend: STO-6G
    Number of shells: 35
    Number of basis function: 49
    Number of Cartesian functions: 49
    Spherical Harmonics?: true
    Max angular momentum: 1

  ==> DFT Potential <==

   => Composite Functional: PBE0 <= 

    PBE0 Hyb-GGA Exchange-Correlation Functional

    C. Adamo and V. Barone, J. Chem. Phys. 110, 6158 (1999)
    M. Ernzerhof and G. E. Scuseria, J. Chem. Phys. 110, 5029 (1999)

    Deriv               =              1
    GGA                 =           TRUE
    Meta                =          FALSE

    Exchange Hybrid     =           TRUE
    MP2 Hybrid          =          FALSE

   => Exchange Functionals <=

    0.7500   Perdew, Burke & Ernzerhof

   => Exact (HF) Exchange <=

    0.2500               HF 

   => Correlation Functionals <=

    1.0000   Perdew, Burke & Ernzerhof

   => Molecular Quadrature <=

    Radial Scheme          =       TREUTLER
    Pruning Scheme         =           FLAT
    Nuclear Scheme         =       TREUTLER

    BS radius alpha        =              1
    Pruning alpha          =              1
    Radial Points          =             75
    Spherical Points       =            302
    Total Points           =         470386
    Total Blocks           =           3469
    Max Points             =            256
    Max Functions          =             48

   => Loading Basis Set <=

    Name: (STO-6G AUX)
    Role: JKFIT
    Keyword: DF_BASIS_SCF
    atoms 1-7  entry C          line   203 file /usr/share/psi4/basis/def2-qzvpp-jkfit.gbs 
    atoms 8-21 entry H          line    23 file /usr/share/psi4/basis/def2-qzvpp-jkfit.gbs 

  ==> Pre-Iterations <==

   -------------------------------------------------------
    Irrep   Nso     Nmo     Nalpha   Nbeta   Ndocc  Nsocc
   -------------------------------------------------------
     A         49      49       0       0       0       0
   -------------------------------------------------------
    Total      49      49      28      28      28       0
   -------------------------------------------------------

  ==> Integral Setup <==

  DFHelper Memory: AOs need 0.019 GiB; user supplied 2.189 GiB. Using in-core AOs.

  ==> MemDFJK: Density-Fitted J/K Matrices <==

    J tasked:                   Yes
    K tasked:                   Yes
    wK tasked:                   No
    OpenMP threads:               4
    Memory [MiB]:              2241
    Algorithm:                 Core
    Schwarz Cutoff:           1E-12
    Mask sparsity (%):       0.5831
    Fitting Condition:        1E-10

   => Auxiliary Basis Set <=

  Basis Set: (STO-6G AUX)
    Blend: DEF2-QZVPP-JKFIT
    Number of shells: 259
    Number of basis function: 777
    Number of Cartesian functions: 903
    Spherical Harmonics?: true
    Max angular momentum: 4

  Cached 100.0% of DFT collocation blocks in 0.605 [GiB].

  Minimum eigenvalue in the overlap matrix is 1.9493507964E-01.
  Using Symmetric Orthogonalization.

  SCF Guess: Superposition of Atomic Densities via on-the-fly atomic UHF.

  ==> Iterations <==

                           Total Energy        Delta E     RMS |[F,P]|

   @DF-RKS iter SAD:  -270.03341436358460   -2.70033e+02   0.00000e+00 
   @DF-RKS iter   1:  -274.27370763297188   -4.24029e+00   1.68191e-03 DIIS
   @DF-RKS iter   2:  -274.27597301207317   -2.26538e-03   1.07003e-03 DIIS
   @DF-RKS iter   3:  -274.27768333657366   -1.71032e-03   1.40660e-04 DIIS
   @DF-RKS iter   4:  -274.27771211230885   -2.87757e-05   2.60186e-05 DIIS
   @DF-RKS iter   5:  -274.27771305440808   -9.42099e-07   3.43668e-06 DIIS
   @DF-RKS iter   6:  -274.27771307149516   -1.70871e-08   4.96903e-07 DIIS
  Energy and wave function converged.


  ==> Post-Iterations <==

    Orbital Energies [Eh]
    ---------------------

    Doubly Occupied:                                                      

       1A    -10.192112     2A    -10.185257     3A    -10.184857  
       4A    -10.184570     5A    -10.181889     6A    -10.181704  
       7A    -10.179451     8A     -0.819041     9A     -0.746053  
      10A     -0.719602    11A     -0.656777    12A     -0.593767  
      13A     -0.574979    14A     -0.504987    15A     -0.464995  
      16A     -0.442599    17A     -0.417457    18A     -0.390363  
      19A     -0.382463    20A     -0.355125    21A     -0.341715  
      22A     -0.331828    23A     -0.324203    24A     -0.313737  
      25A     -0.311560    26A     -0.265653    27A     -0.261881  
      28A     -0.259000  

    Virtual:                                                              

      29A      0.349363    30A      0.363245    31A      0.378973  
      32A      0.403952    33A      0.418577    34A      0.420046  
      35A      0.433594    36A      0.436476    37A      0.471324  
      38A      0.480167    39A      0.498433    40A      0.501632  
      41A      0.519752    42A      0.532795    43A      0.538939  
      44A      0.545661    45A      0.552549    46A      0.556678  
      47A      0.584400    48A      0.592839    49A      0.614076  

    Final Occupation by Irrep:
              A 
    DOCC [    28 ]

  @DF-RKS Final Energy:  -274.27771307149516

   => Energetics <=

    Nuclear Repulsion Energy =            330.3007073107152110
    One-Electron Energy =               -1024.2010951756119539
    Two-Electron Energy =                 452.4182815003495080
    DFT Exchange-Correlation Energy =     -32.7956067069479360
    Empirical Dispersion Energy =           0.0000000000000000
    VV10 Nonlocal Energy =                  0.0000000000000000
    Total Energy =                       -274.2777130714951568

Computation Completed


Properties will be evaluated at   0.000000,   0.000000,   0.000000 [a0]

Properties computed using the SCF density matrix

  Nuclear Dipole Moment: [e a0]
     X:    -1.2414      Y:     0.0284      Z:     0.2103

  Electronic Dipole Moment: [e a0]
     X:     1.2459      Y:    -0.0266      Z:    -0.2158

  Dipole Moment: [e a0]
     X:     0.0046      Y:     0.0018      Z:    -0.0055     Total:     0.0074

  Dipole Moment: [D]
     X:     0.0117      Y:     0.0045      Z:    -0.0140     Total:     0.0188


*** tstop() called on lenovo at Tue Jan 18 21:40:30 2022
Module time:
	user time   =      14.58 seconds =       0.24 minutes
	system time =       0.39 seconds =       0.01 minutes
	total time  =          6 seconds =       0.10 minutes
Total time:
	user time   =      14.58 seconds =       0.24 minutes
	system time =       0.39 seconds =       0.01 minutes
	total time  =          6 seconds =       0.10 minutes

    Psi4 stopped on: Tuesday, 18 January 2022 09:40PM
    Psi4 wall time for execution: 0:00:06.73

*** Psi4 exiting successfully. Buy a developer a beer!
