
    -----------------------------------------------------------------------
          Psi4: An Open-Source Ab Initio Electronic Structure Package
                               Psi4 1.3.2 release

                         Git: Rev {} zzzzzzz 


    R. M. Parrish, L. A. Burns, D. G. A. Smith, A. C. Simmonett,
    A. E. DePrince III, E. G. Hohenstein, U. Bozkaya, A. Yu. Sokolov,
    R. Di Remigio, R. M. Richard, J. F. Gonthier, A. M. James,
    H. R. McAlexander, A. Kumar, M. Saitow, X. Wang, B. P. Pritchard,
    P. Verma, H. F. Schaefer III, K. Patkowski, R. A. King, E. F. Valeev,
    F. A. Evangelista, J. M. Turney, T. D. Crawford, and C. D. Sherrill,
    J. Chem. Theory Comput. 13(7) pp 3185--3197 (2017).
    (doi: 10.1021/acs.jctc.7b00174)


                         Additional Contributions by
    P. Kraus, H. Kruse, M. H. Lechner, M. C. Schieber, R. A. Shaw,
    A. Alenaizan, R. Galvelis, Z. L. Glick, S. Lehtola, and J. P. Misiewicz

    -----------------------------------------------------------------------


    Psi4 started on: Saturday, 10 July 2021 02:39PM

    Process ID: 1475851
    Host:       thinkpad
    PSIDATADIR: /usr/share/psi4
    Memory:     500.0 MiB
    Threads:    4
    
  ==> Input File <==

--------------------------------------------------------------------------
# PBE0/STO-6G calculation on methylcyclohexane conformer #1 

memory 4 gb

molecule {
	    C     1.0234635301  -0.0007742584  -0.3188737608
	    C     0.3017073042  -1.2512272050   0.1754664506
	    C     0.3015407335   1.2521760054   0.1688550931
	    C    -1.1716680006  -1.2570432683  -0.2098978696
	    C    -1.1718340143   1.2557610872  -0.2165376958
	    C    -1.8784232212   0.0006089036   0.2775860010
	    C     2.4864421419   0.0004088613   0.0921086014
	    H     0.9757292467  -0.0036779398  -1.4177990159
	    H     0.3909380472  -1.2979228946   1.2695859885
	    H     0.8001658533  -2.1458479188  -0.2128965357
	    H     0.7998815010   2.1448001810  -0.2242245068
	    H     0.3907613197   1.3046596032   1.2627128354
	    H    -1.6634660762  -2.1493772943   0.1893364041
	    H    -1.2580192071  -1.3177976373  -1.3022530632
	    H    -1.2581920758   1.3107307698  -1.3091990966
	    H    -1.6637514674   2.1501274299   0.1779740826
	    H    -2.9238724708  -0.0003137287  -0.0456811441
	    H    -1.8915895205   0.0035075693   1.3750264201
	    H     3.0069628066   0.8833885032  -0.2885857215
	    H     2.5824721248   0.0032426413   1.1826107493
	    H     3.0071038496  -0.8844491666  -0.2840048623
}

set basis STO-6G
energy('pbe0')
--------------------------------------------------------------------------

  Memory set to   3.725 GiB by Python driver.

*** tstart() called on thinkpad
*** at Sat Jul 10 14:39:11 2021

   => Loading Basis Set <=

    Name: STO-6G
    Role: ORBITAL
    Keyword: BASIS
    atoms 1-7  entry C          line    83 file /home/susi/dokumentit/tutkimus/linuxchemistry/suppinfo/psi4/methylcyclohexane/sto-6g.gbs 
    atoms 8-21 entry H          line    17 file /home/susi/dokumentit/tutkimus/linuxchemistry/suppinfo/psi4/methylcyclohexane/sto-6g.gbs 


         ---------------------------------------------------------
                                   SCF
               by Justin Turney, Rob Parrish, Andy Simmonett
                          and Daniel G. A. Smith
                              RKS Reference
                        4 Threads,   3814 MiB Core
         ---------------------------------------------------------

  ==> Geometry <==

    Molecular point group: c1
    Full point group: C1

    Geometry (in Angstrom), charge = 0, multiplicity = 1:

       Center              X                  Y                   Z               Mass       
    ------------   -----------------  -----------------  -----------------  -----------------
         C            1.023463530092    -0.000774258409    -0.318873760795    12.000000000000
         C            0.301707304192    -1.251227205009     0.175466450605    12.000000000000
         C            0.301540733492     1.252176005391     0.168855093105    12.000000000000
         C           -1.171668000608    -1.257043268309    -0.209897869595    12.000000000000
         C           -1.171834014308     1.255761087191    -0.216537695795    12.000000000000
         C           -1.878423221208     0.000608903591     0.277586001005    12.000000000000
         C            2.486442141892     0.000408861291     0.092108601405    12.000000000000
         H            0.975729246692    -0.003677939809    -1.417799015895     1.007825032230
         H            0.390938047192    -1.297922894609     1.269585988505     1.007825032230
         H            0.800165853292    -2.145847918809    -0.212896535695     1.007825032230
         H            0.799881500992     2.144800180991    -0.224224506795     1.007825032230
         H            0.390761319692     1.304659603191     1.262712835405     1.007825032230
         H           -1.663466076208    -2.149377294309     0.189336404105     1.007825032230
         H           -1.258019207108    -1.317797637309    -1.302253063195     1.007825032230
         H           -1.258192075808     1.310730769791    -1.309199096595     1.007825032230
         H           -1.663751467408     2.150127429891     0.177974082605     1.007825032230
         H           -2.923872470808    -0.000313728709    -0.045681144095     1.007825032230
         H           -1.891589520508     0.003507569291     1.375026420105     1.007825032230
         H            3.006962806592     0.883388503191    -0.288585721495     1.007825032230
         H            2.582472124792     0.003242641291     1.182610749305     1.007825032230
         H            3.007103849592    -0.884449166609    -0.284004862295     1.007825032230

  Running in c1 symmetry.

  Rotational constants: A =      0.14174  B =      0.07358  C =      0.05347 [cm^-1]
  Rotational constants: A =   4249.12123  B =   2205.73008  C =   1602.93701 [MHz]
  Nuclear repulsion =  329.947426242185145

  Charge       = 0
  Multiplicity = 1
  Electrons    = 56
  Nalpha       = 28
  Nbeta        = 28

  ==> Algorithm <==

  SCF Algorithm Type is DF.
  DIIS enabled.
  MOM disabled.
  Fractional occupation disabled.
  Guess Type is SAD.
  Energy threshold   = 1.00e-06
  Density threshold  = 1.00e-06
  Integral threshold = 0.00e+00

  ==> Primary Basis <==

  Basis Set: STO-6G
    Blend: STO-6G
    Number of shells: 35
    Number of basis function: 49
    Number of Cartesian functions: 49
    Spherical Harmonics?: true
    Max angular momentum: 1

  ==> DFT Potential <==

   => Composite Functional: PBE0 <= 

    PBE0 Hyb-GGA Exchange-Correlation Functional

    C. Adamo and V. Barone, J. Chem. Phys. 110, 6158 (1999)
    M. Ernzerhof and G. E. Scuseria, J. Chem. Phys. 110, 5029 (1999)

    Deriv               =              1
    GGA                 =           TRUE
    Meta                =          FALSE

    Exchange Hybrid     =           TRUE
    MP2 Hybrid          =          FALSE

   => Exchange Functionals <=

    0.7500   Perdew, Burke & Ernzerhof

   => Exact (HF) Exchange <=

    0.2500               HF 

   => Correlation Functionals <=

    1.0000   Perdew, Burke & Ernzerhof

   => Molecular Quadrature <=

    Radial Scheme          =       TREUTLER
    Pruning Scheme         =           FLAT
    Nuclear Scheme         =       TREUTLER

    BS radius alpha        =              1
    Pruning alpha          =              1
    Radial Points          =             75
    Spherical Points       =            302
    Total Points           =         470346
    Total Blocks           =           3442
    Max Points             =            256
    Max Functions          =             48

   => Loading Basis Set <=

    Name: (STO-6G AUX)
    Role: JKFIT
    Keyword: DF_BASIS_SCF
    atoms 1-7  entry C          line   203 file /usr/share/psi4/basis/def2-qzvpp-jkfit.gbs 
    atoms 8-21 entry H          line    23 file /usr/share/psi4/basis/def2-qzvpp-jkfit.gbs 

  ==> Pre-Iterations <==

   -------------------------------------------------------
    Irrep   Nso     Nmo     Nalpha   Nbeta   Ndocc  Nsocc
   -------------------------------------------------------
     A         49      49       0       0       0       0
   -------------------------------------------------------
    Total      49      49      28      28      28       0
   -------------------------------------------------------

  ==> Integral Setup <==

  DFHelper Memory: AOs need 0.019 GiB; user supplied 2.189 GiB. Using in-core AOs.

  ==> MemDFJK: Density-Fitted J/K Matrices <==

    J tasked:                   Yes
    K tasked:                   Yes
    wK tasked:                   No
    OpenMP threads:               4
    Memory [MiB]:              2241
    Algorithm:                 Core
    Schwarz Cutoff:           1E-12
    Mask sparsity (%):       0.4998
    Fitting Condition:        1E-10

   => Auxiliary Basis Set <=

  Basis Set: (STO-6G AUX)
    Blend: DEF2-QZVPP-JKFIT
    Number of shells: 259
    Number of basis function: 777
    Number of Cartesian functions: 903
    Spherical Harmonics?: true
    Max angular momentum: 4

  Cached 100.0% of DFT collocation blocks in 0.605 [GiB].

  Minimum eigenvalue in the overlap matrix is 1.9612350067E-01.
  Using Symmetric Orthogonalization.

  SCF Guess: Superposition of Atomic Densities via on-the-fly atomic UHF.

  ==> Iterations <==

                           Total Energy        Delta E     RMS |[F,P]|

   @DF-RKS iter SAD:  -270.05699803869908   -2.70057e+02   0.00000e+00 
   @DF-RKS iter   1:  -274.28254104252005   -4.22554e+00   1.68824e-03 DIIS
   @DF-RKS iter   2:  -274.28484068826424   -2.29965e-03   1.07299e-03 DIIS
   @DF-RKS iter   3:  -274.28656568899220   -1.72500e-03   1.40644e-04 DIIS
   @DF-RKS iter   4:  -274.28659461419119   -2.89252e-05   2.51059e-05 DIIS
   @DF-RKS iter   5:  -274.28659549065964   -8.76468e-07   3.46847e-06 DIIS
   @DF-RKS iter   6:  -274.28659550807271   -1.74131e-08   4.59403e-07 DIIS
  Energy and wave function converged.


  ==> Post-Iterations <==

    Orbital Energies [Eh]
    ---------------------

    Doubly Occupied:                                                      

       1A    -10.192806     2A    -10.186015     3A    -10.185753  
       4A    -10.185384     5A    -10.182776     6A    -10.182730  
       7A    -10.179370     8A     -0.820375     9A     -0.748395  
      10A     -0.723480    11A     -0.657305    12A     -0.590134  
      13A     -0.565636    14A     -0.531643    15A     -0.451335  
      16A     -0.423753    17A     -0.415097    18A     -0.411721  
      19A     -0.386888    20A     -0.358172    21A     -0.347106  
      22A     -0.336827    23A     -0.319933    24A     -0.309818  
      25A     -0.300111    26A     -0.278504    27A     -0.262851  
      28A     -0.259547  

    Virtual:                                                              

      29A      0.352630    30A      0.369522    31A      0.383074  
      32A      0.405606    33A      0.409422    34A      0.414975  
      35A      0.458966    36A      0.471747    37A      0.475710  
      38A      0.487699    39A      0.499738    40A      0.507611  
      41A      0.522082    42A      0.525560    43A      0.533272  
      44A      0.547693    45A      0.554300    46A      0.559052  
      47A      0.566186    48A      0.578632    49A      0.580334  

    Final Occupation by Irrep:
              A 
    DOCC [    28 ]

  @DF-RKS Final Energy:  -274.28659550807271

   => Energetics <=

    Nuclear Repulsion Energy =            329.9474262421851449
    One-Electron Energy =               -1023.4587732657403194
    Two-Electron Energy =                 452.0231791420834497
    DFT Exchange-Correlation Energy =     -32.7984276266010255
    Empirical Dispersion Energy =           0.0000000000000000
    VV10 Nonlocal Energy =                  0.0000000000000000
    Total Energy =                       -274.2865955080727076

Computation Completed


Properties will be evaluated at   0.000000,   0.000000,   0.000000 [a0]

Properties computed using the SCF density matrix

  Nuclear Dipole Moment: [e a0]
     X:     1.2141      Y:     0.0010      Z:     0.3493

  Electronic Dipole Moment: [e a0]
     X:    -1.2189      Y:    -0.0010      Z:    -0.3545

  Dipole Moment: [e a0]
     X:    -0.0048      Y:    -0.0000      Z:    -0.0052     Total:     0.0071

  Dipole Moment: [D]
     X:    -0.0122      Y:    -0.0000      Z:    -0.0133     Total:     0.0180


*** tstop() called on thinkpad at Sat Jul 10 14:39:19 2021
Module time:
	user time   =      17.17 seconds =       0.29 minutes
	system time =       0.37 seconds =       0.01 minutes
	total time  =          8 seconds =       0.13 minutes
Total time:
	user time   =      17.17 seconds =       0.29 minutes
	system time =       0.37 seconds =       0.01 minutes
	total time  =          8 seconds =       0.13 minutes

    Psi4 stopped on: Saturday, 10 July 2021 02:39PM
    Psi4 wall time for execution: 0:00:07.64

*** Psi4 exiting successfully. Buy a developer a beer!
