
    -----------------------------------------------------------------------
          Psi4: An Open-Source Ab Initio Electronic Structure Package
                               Psi4 1.3.2 release

                         Git: Rev {} zzzzzzz 


    R. M. Parrish, L. A. Burns, D. G. A. Smith, A. C. Simmonett,
    A. E. DePrince III, E. G. Hohenstein, U. Bozkaya, A. Yu. Sokolov,
    R. Di Remigio, R. M. Richard, J. F. Gonthier, A. M. James,
    H. R. McAlexander, A. Kumar, M. Saitow, X. Wang, B. P. Pritchard,
    P. Verma, H. F. Schaefer III, K. Patkowski, R. A. King, E. F. Valeev,
    F. A. Evangelista, J. M. Turney, T. D. Crawford, and C. D. Sherrill,
    J. Chem. Theory Comput. 13(7) pp 3185--3197 (2017).
    (doi: 10.1021/acs.jctc.7b00174)


                         Additional Contributions by
    P. Kraus, H. Kruse, M. H. Lechner, M. C. Schieber, R. A. Shaw,
    A. Alenaizan, R. Galvelis, Z. L. Glick, S. Lehtola, and J. P. Misiewicz

    -----------------------------------------------------------------------


    Psi4 started on: Tuesday, 18 January 2022 09:39PM

    Process ID: 825034
    Host:       lenovo
    PSIDATADIR: /usr/share/psi4
    Memory:     500.0 MiB
    Threads:    4
    
  ==> Input File <==

--------------------------------------------------------------------------
# PBE0/STO-3G calculation on methylcyclohexane conformer #1 

memory 4 gb

molecule {
	    C    -1.1095788642   0.0000421088  -0.5173760840
	    C    -0.2371911735   1.2538500872  -0.6256558751
	    C    -0.2373065295  -1.2538472571  -0.6256133330
	    C     0.9232150254   1.2569141188   0.3629919555
	    C     0.9230786172  -1.2569833692   0.3630567435
	    C     1.7717397798  -0.0000842569   0.2209982710
	    C    -1.9692772405   0.0001028398   0.7417473964
	    H    -1.7957314975   0.0000606184  -1.3728857462
	    H    -0.8538328424   2.1487527424  -0.4904864530
	    H     0.1711017413   1.3094516562  -1.6424906919
	    H     0.1710005695  -1.3095119892  -1.6424391841
	    H    -0.8540315594  -2.1486900871  -0.4904311434
	    H     0.5410089072   1.3223877590   1.3883671425
	    H     1.5377490490   2.1493641079   0.2101511831
	    H     1.5375182250  -2.1495093449   0.2102817571
	    H     0.5408436961  -1.3223517185   1.3884288345
	    H     2.2502712986  -0.0001344288  -0.7670543102
	    H     2.5806050116  -0.0001088940   0.9580214078
	    H    -1.3702856024  -0.0000265841   1.6551935732
	    H    -2.6130476994   0.8833324610   0.7731000135
	    H    -2.6132983885  -0.8829480869   0.7730149087
}

set basis STO-3G
energy('pbe0')
--------------------------------------------------------------------------

  Memory set to   3.725 GiB by Python driver.

*** tstart() called on lenovo
*** at Tue Jan 18 21:39:55 2022

   => Loading Basis Set <=

    Name: STO-3G
    Role: ORBITAL
    Keyword: BASIS
    atoms 1-7  entry C          line    59 file /home/susi/dokumentit/tutkimus/linuxchemistry/suppinfo/psi4/methylcyclohexane/sto-3g.gbs 
    atoms 8-21 entry H          line    17 file /home/susi/dokumentit/tutkimus/linuxchemistry/suppinfo/psi4/methylcyclohexane/sto-3g.gbs 


         ---------------------------------------------------------
                                   SCF
               by Justin Turney, Rob Parrish, Andy Simmonett
                          and Daniel G. A. Smith
                              RKS Reference
                        4 Threads,   3814 MiB Core
         ---------------------------------------------------------

  ==> Geometry <==

    Molecular point group: c1
    Full point group: C1

    Geometry (in Angstrom), charge = 0, multiplicity = 1:

       Center              X                  Y                   Z               Mass       
    ------------   -----------------  -----------------  -----------------  -----------------
         C           -1.109578864201     0.000042108780    -0.517376083992    12.000000000000
         C           -0.237191173501     1.253850087180    -0.625655875092    12.000000000000
         C           -0.237306529501    -1.253847257120    -0.625613332992    12.000000000000
         C            0.923215025399     1.256914118780     0.362991955508    12.000000000000
         C            0.923078617199    -1.256983369220     0.363056743508    12.000000000000
         C            1.771739779799    -0.000084256920     0.220998271008    12.000000000000
         C           -1.969277240501     0.000102839780     0.741747396408    12.000000000000
         H           -1.795731497501     0.000060618380    -1.372885746192     1.007825032230
         H           -0.853832842401     2.148752742380    -0.490486452992     1.007825032230
         H            0.171101741299     1.309451656180    -1.642490691892     1.007825032230
         H            0.171000569499    -1.309511989220    -1.642439184092     1.007825032230
         H           -0.854031559401    -2.148690087120    -0.490431143392     1.007825032230
         H            0.541008907199     1.322387758980     1.388367142508     1.007825032230
         H            1.537749048999     2.149364107880     0.210151183108     1.007825032230
         H            1.537518224999    -2.149509344920     0.210281757108     1.007825032230
         H            0.540843696099    -1.322351718520     1.388428834508     1.007825032230
         H            2.250271298599    -0.000134428820    -0.767054310192     1.007825032230
         H            2.580605011599    -0.000108894020     0.958021407808     1.007825032230
         H           -1.370285602401    -0.000026584120     1.655193573208     1.007825032230
         H           -2.613047699401     0.883332460980     0.773100013508     1.007825032230
         H           -2.613298388501    -0.882948086920     0.773014908708     1.007825032230

  Running in c1 symmetry.

  Rotational constants: A =      0.11801  B =      0.08487  C =      0.06448 [cm^-1]
  Rotational constants: A =   3537.86119  B =   2544.37041  C =   1933.20741 [MHz]
  Nuclear repulsion =  333.886610125007905

  Charge       = 0
  Multiplicity = 1
  Electrons    = 56
  Nalpha       = 28
  Nbeta        = 28

  ==> Algorithm <==

  SCF Algorithm Type is DF.
  DIIS enabled.
  MOM disabled.
  Fractional occupation disabled.
  Guess Type is SAD.
  Energy threshold   = 1.00e-06
  Density threshold  = 1.00e-06
  Integral threshold = 0.00e+00

  ==> Primary Basis <==

  Basis Set: STO-3G
    Blend: STO-3G
    Number of shells: 35
    Number of basis function: 49
    Number of Cartesian functions: 49
    Spherical Harmonics?: true
    Max angular momentum: 1

  ==> DFT Potential <==

   => Composite Functional: PBE0 <= 

    PBE0 Hyb-GGA Exchange-Correlation Functional

    C. Adamo and V. Barone, J. Chem. Phys. 110, 6158 (1999)
    M. Ernzerhof and G. E. Scuseria, J. Chem. Phys. 110, 5029 (1999)

    Deriv               =              1
    GGA                 =           TRUE
    Meta                =          FALSE

    Exchange Hybrid     =           TRUE
    MP2 Hybrid          =          FALSE

   => Exchange Functionals <=

    0.7500   Perdew, Burke & Ernzerhof

   => Exact (HF) Exchange <=

    0.2500               HF 

   => Correlation Functionals <=

    1.0000   Perdew, Burke & Ernzerhof

   => Molecular Quadrature <=

    Radial Scheme          =       TREUTLER
    Pruning Scheme         =           FLAT
    Nuclear Scheme         =       TREUTLER

    BS radius alpha        =              1
    Pruning alpha          =              1
    Radial Points          =             75
    Spherical Points       =            302
    Total Points           =         464254
    Total Blocks           =           3407
    Max Points             =            256
    Max Functions          =             48

   => Loading Basis Set <=

    Name: (STO-3G AUX)
    Role: JKFIT
    Keyword: DF_BASIS_SCF
    atoms 1-7  entry C          line   203 file /usr/share/psi4/basis/def2-svp-jkfit.gbs 
    atoms 8-21 entry H          line    23 file /usr/share/psi4/basis/def2-svp-jkfit.gbs 

  ==> Pre-Iterations <==

   -------------------------------------------------------
    Irrep   Nso     Nmo     Nalpha   Nbeta   Ndocc  Nsocc
   -------------------------------------------------------
     A         49      49       0       0       0       0
   -------------------------------------------------------
    Total      49      49      28      28      28       0
   -------------------------------------------------------

  ==> Integral Setup <==

  DFHelper Memory: AOs need 0.019 GiB; user supplied 2.212 GiB. Using in-core AOs.

  ==> MemDFJK: Density-Fitted J/K Matrices <==

    J tasked:                   Yes
    K tasked:                   Yes
    wK tasked:                   No
    OpenMP threads:               4
    Memory [MiB]:              2264
    Algorithm:                 Core
    Schwarz Cutoff:           1E-12
    Mask sparsity (%):       1.1662
    Fitting Condition:        1E-10

   => Auxiliary Basis Set <=

  Basis Set: (STO-3G AUX)
    Blend: DEF2-SVP-JKFIT
    Number of shells: 259
    Number of basis function: 777
    Number of Cartesian functions: 903
    Spherical Harmonics?: true
    Max angular momentum: 4

  Cached 100.0% of DFT collocation blocks in 0.582 [GiB].

  Minimum eigenvalue in the overlap matrix is 1.9078232903E-01.
  Using Symmetric Orthogonalization.

  SCF Guess: Superposition of Atomic Densities via on-the-fly atomic UHF.

  ==> Iterations <==

                           Total Energy        Delta E     RMS |[F,P]|

   @DF-RKS iter SAD:  -267.33017850672337   -2.67330e+02   0.00000e+00 
   @DF-RKS iter   1:  -271.63172867933628   -4.30155e+00   1.81025e-03 DIIS
   @DF-RKS iter   2:  -271.63419551018023   -2.46683e-03   1.21467e-03 DIIS
   @DF-RKS iter   3:  -271.63640978584522   -2.21428e-03   1.24044e-04 DIIS
   @DF-RKS iter   4:  -271.63643263597089   -2.28501e-05   1.77539e-05 DIIS
   @DF-RKS iter   5:  -271.63643306113505   -4.25164e-07   3.87550e-06 DIIS
   @DF-RKS iter   6:  -271.63643308247617   -2.13411e-08   3.36525e-07 DIIS
  Energy and wave function converged.


  ==> Post-Iterations <==

    Orbital Energies [Eh]
    ---------------------

    Doubly Occupied:                                                      

       1A    -10.051402     2A    -10.042240     3A    -10.041552  
       4A    -10.041007     5A    -10.039837     6A    -10.039686  
       7A    -10.033156     8A     -0.819805     9A     -0.743110  
      10A     -0.722107    11A     -0.659168    12A     -0.587503  
      13A     -0.575090    14A     -0.508223    15A     -0.461905  
      16A     -0.422744    17A     -0.422684    18A     -0.400392  
      19A     -0.374907    20A     -0.372491    21A     -0.345516  
      22A     -0.327644    23A     -0.324857    24A     -0.305069  
      25A     -0.302736    26A     -0.272580    27A     -0.258506  
      28A     -0.257991  

    Virtual:                                                              

      29A      0.363032    30A      0.377692    31A      0.388992  
      32A      0.413534    33A      0.428979    34A      0.430628  
      35A      0.450183    36A      0.458974    37A      0.479379  
      38A      0.484135    39A      0.512802    40A      0.514845  
      41A      0.528872    42A      0.549124    43A      0.554159  
      44A      0.558643    45A      0.563022    46A      0.578095  
      47A      0.584665    48A      0.589033    49A      0.589816  

    Final Occupation by Irrep:
              A 
    DOCC [    28 ]

  @DF-RKS Final Energy:  -271.63643308247617

   => Energetics <=

    Nuclear Repulsion Energy =            333.8866101250079055
    One-Electron Energy =               -1028.2160599928265583
    Two-Electron Energy =                 455.3629957922577773
    DFT Exchange-Correlation Energy =     -32.6699790069153551
    Empirical Dispersion Energy =           0.0000000000000000
    VV10 Nonlocal Energy =                  0.0000000000000000
    Total Energy =                       -271.6364330824762305

Computation Completed


Properties will be evaluated at   0.000000,   0.000000,   0.000000 [a0]

Properties computed using the SCF density matrix

  Nuclear Dipole Moment: [e a0]
     X:    -0.7220      Y:     0.0001      Z:     0.8913

  Electronic Dipole Moment: [e a0]
     X:     0.7199      Y:    -0.0001      Z:    -0.9123

  Dipole Moment: [e a0]
     X:    -0.0021      Y:    -0.0000      Z:    -0.0209     Total:     0.0210

  Dipole Moment: [D]
     X:    -0.0053      Y:    -0.0000      Z:    -0.0532     Total:     0.0535


*** tstop() called on lenovo at Tue Jan 18 21:40:00 2022
Module time:
	user time   =      10.45 seconds =       0.17 minutes
	system time =       0.26 seconds =       0.00 minutes
	total time  =          5 seconds =       0.08 minutes
Total time:
	user time   =      10.45 seconds =       0.17 minutes
	system time =       0.26 seconds =       0.00 minutes
	total time  =          5 seconds =       0.08 minutes

    Psi4 stopped on: Tuesday, 18 January 2022 09:40PM
    Psi4 wall time for execution: 0:00:04.99

*** Psi4 exiting successfully. Buy a developer a beer!
