
    -----------------------------------------------------------------------
          Psi4: An Open-Source Ab Initio Electronic Structure Package
                               Psi4 1.3.2 release

                         Git: Rev {} zzzzzzz 


    R. M. Parrish, L. A. Burns, D. G. A. Smith, A. C. Simmonett,
    A. E. DePrince III, E. G. Hohenstein, U. Bozkaya, A. Yu. Sokolov,
    R. Di Remigio, R. M. Richard, J. F. Gonthier, A. M. James,
    H. R. McAlexander, A. Kumar, M. Saitow, X. Wang, B. P. Pritchard,
    P. Verma, H. F. Schaefer III, K. Patkowski, R. A. King, E. F. Valeev,
    F. A. Evangelista, J. M. Turney, T. D. Crawford, and C. D. Sherrill,
    J. Chem. Theory Comput. 13(7) pp 3185--3197 (2017).
    (doi: 10.1021/acs.jctc.7b00174)


                         Additional Contributions by
    P. Kraus, H. Kruse, M. H. Lechner, M. C. Schieber, R. A. Shaw,
    A. Alenaizan, R. Galvelis, Z. L. Glick, S. Lehtola, and J. P. Misiewicz

    -----------------------------------------------------------------------


    Psi4 started on: Tuesday, 18 January 2022 09:40PM

    Process ID: 825973
    Host:       lenovo
    PSIDATADIR: /usr/share/psi4
    Memory:     500.0 MiB
    Threads:    4
    
  ==> Input File <==

--------------------------------------------------------------------------
# PBE0/STO-3G calculation on methylcyclohexane conformer #3 

memory 4 gb

molecule {
	    C    -1.0847725685   0.0976610825  -0.4269486177
	    C    -0.2698286331   1.2632156387   0.1518459996
	    C    -0.2064731988  -1.1590011569  -0.5835254873
	    C     1.1768592218   1.2148149812  -0.3150011265
	    C     0.9073632537  -1.1919128461   0.4526424034
	    C     1.8846981078  -0.0300906667   0.2374596405
	    C    -2.3170183281  -0.1754578965   0.4224861901
	    H    -1.4252224679   0.3936204591  -1.4264545578
	    H    -0.2943853849   1.2160561614   1.2480726357
	    H    -0.7398522975   2.2129762511  -0.1197664510
	    H     0.2423860527  -1.1790207230  -1.5827271443
	    H    -0.8297626199  -2.0557369873  -0.5127267397
	    H     1.7137734802   2.1193450789  -0.0171833746
	    H     1.1926687761   1.1999861347  -1.4106391729
	    H     1.4401448988  -2.1460138025   0.4197189705
	    H     0.4667241381  -1.1283670621   1.4537331255
	    H     2.6787063228  -0.3355753250  -0.4508708907
	    H     2.3775904019   0.2113515366   1.1842119500
	    H    -2.9090967022   0.7328018070   0.5666285472
	    H    -2.9622182726  -0.9275147374  -0.0392110358
	    H    -2.0329280334  -0.5428668226   1.4140188414
}

set basis STO-3G
energy('pbe0')
--------------------------------------------------------------------------

  Memory set to   3.725 GiB by Python driver.

*** tstart() called on lenovo
*** at Tue Jan 18 21:40:05 2022

   => Loading Basis Set <=

    Name: STO-3G
    Role: ORBITAL
    Keyword: BASIS
    atoms 1-7  entry C          line    59 file /home/susi/dokumentit/tutkimus/linuxchemistry/suppinfo/psi4/methylcyclohexane/sto-3g.gbs 
    atoms 8-21 entry H          line    17 file /home/susi/dokumentit/tutkimus/linuxchemistry/suppinfo/psi4/methylcyclohexane/sto-3g.gbs 


         ---------------------------------------------------------
                                   SCF
               by Justin Turney, Rob Parrish, Andy Simmonett
                          and Daniel G. A. Smith
                              RKS Reference
                        4 Threads,   3814 MiB Core
         ---------------------------------------------------------

  ==> Geometry <==

    Molecular point group: c1
    Full point group: C1

    Geometry (in Angstrom), charge = 0, multiplicity = 1:

       Center              X                  Y                   Z               Mass       
    ------------   -----------------  -----------------  -----------------  -----------------
         C           -1.084772568488     0.097661082507    -0.426948617689    12.000000000000
         C           -0.269828633088     1.263215638707     0.151845999611    12.000000000000
         C           -0.206473198788    -1.159001156893    -0.583525487289    12.000000000000
         C            1.176859221812     1.214814981207    -0.315001126489    12.000000000000
         C            0.907363253712    -1.191912846093     0.452642403411    12.000000000000
         C            1.884698107812    -0.030090666693     0.237459640511    12.000000000000
         C           -2.317018328088    -0.175457896493     0.422486190111    12.000000000000
         H           -1.425222467888     0.393620459107    -1.426454557789     1.007825032230
         H           -0.294385384888     1.216056161407     1.248072635711     1.007825032230
         H           -0.739852297488     2.212976251107    -0.119766450989     1.007825032230
         H            0.242386052712    -1.179020722993    -1.582727144289     1.007825032230
         H           -0.829762619888    -2.055736987293    -0.512726739689     1.007825032230
         H            1.713773480212     2.119345078907    -0.017183374589     1.007825032230
         H            1.192668776112     1.199986134707    -1.410639172889     1.007825032230
         H            1.440144898812    -2.146013802493     0.419718970511     1.007825032230
         H            0.466724138112    -1.128367062093     1.453733125511     1.007825032230
         H            2.678706322812    -0.335575324993    -0.450870890689     1.007825032230
         H            2.377590401912     0.211351536607     1.184211950011     1.007825032230
         H           -2.909096702188     0.732801807007     0.566628547211     1.007825032230
         H           -2.962218272588    -0.927514737393    -0.039211035789     1.007825032230
         H           -2.032928033388    -0.542866822593     1.414018841411     1.007825032230

  Running in c1 symmetry.

  Rotational constants: A =      0.13633  B =      0.07598  C =      0.05807 [cm^-1]
  Rotational constants: A =   4086.98332  B =   2277.95767  C =   1740.89289 [MHz]
  Nuclear repulsion =  331.726266423276911

  Charge       = 0
  Multiplicity = 1
  Electrons    = 56
  Nalpha       = 28
  Nbeta        = 28

  ==> Algorithm <==

  SCF Algorithm Type is DF.
  DIIS enabled.
  MOM disabled.
  Fractional occupation disabled.
  Guess Type is SAD.
  Energy threshold   = 1.00e-06
  Density threshold  = 1.00e-06
  Integral threshold = 0.00e+00

  ==> Primary Basis <==

  Basis Set: STO-3G
    Blend: STO-3G
    Number of shells: 35
    Number of basis function: 49
    Number of Cartesian functions: 49
    Spherical Harmonics?: true
    Max angular momentum: 1

  ==> DFT Potential <==

   => Composite Functional: PBE0 <= 

    PBE0 Hyb-GGA Exchange-Correlation Functional

    C. Adamo and V. Barone, J. Chem. Phys. 110, 6158 (1999)
    M. Ernzerhof and G. E. Scuseria, J. Chem. Phys. 110, 5029 (1999)

    Deriv               =              1
    GGA                 =           TRUE
    Meta                =          FALSE

    Exchange Hybrid     =           TRUE
    MP2 Hybrid          =          FALSE

   => Exchange Functionals <=

    0.7500   Perdew, Burke & Ernzerhof

   => Exact (HF) Exchange <=

    0.2500               HF 

   => Correlation Functionals <=

    1.0000   Perdew, Burke & Ernzerhof

   => Molecular Quadrature <=

    Radial Scheme          =       TREUTLER
    Pruning Scheme         =           FLAT
    Nuclear Scheme         =       TREUTLER

    BS radius alpha        =              1
    Pruning alpha          =              1
    Radial Points          =             75
    Spherical Points       =            302
    Total Points           =         464266
    Total Blocks           =           3416
    Max Points             =            256
    Max Functions          =             48

   => Loading Basis Set <=

    Name: (STO-3G AUX)
    Role: JKFIT
    Keyword: DF_BASIS_SCF
    atoms 1-7  entry C          line   203 file /usr/share/psi4/basis/def2-svp-jkfit.gbs 
    atoms 8-21 entry H          line    23 file /usr/share/psi4/basis/def2-svp-jkfit.gbs 

  ==> Pre-Iterations <==

   -------------------------------------------------------
    Irrep   Nso     Nmo     Nalpha   Nbeta   Ndocc  Nsocc
   -------------------------------------------------------
     A         49      49       0       0       0       0
   -------------------------------------------------------
    Total      49      49      28      28      28       0
   -------------------------------------------------------

  ==> Integral Setup <==

  DFHelper Memory: AOs need 0.019 GiB; user supplied 2.213 GiB. Using in-core AOs.

  ==> MemDFJK: Density-Fitted J/K Matrices <==

    J tasked:                   Yes
    K tasked:                   Yes
    wK tasked:                   No
    OpenMP threads:               4
    Memory [MiB]:              2265
    Algorithm:                 Core
    Schwarz Cutoff:           1E-12
    Mask sparsity (%):       1.1662
    Fitting Condition:        1E-10

   => Auxiliary Basis Set <=

  Basis Set: (STO-3G AUX)
    Blend: DEF2-SVP-JKFIT
    Number of shells: 259
    Number of basis function: 777
    Number of Cartesian functions: 903
    Spherical Harmonics?: true
    Max angular momentum: 4

  Cached 100.0% of DFT collocation blocks in 0.581 [GiB].

  Minimum eigenvalue in the overlap matrix is 1.8988849077E-01.
  Using Symmetric Orthogonalization.

  SCF Guess: Superposition of Atomic Densities via on-the-fly atomic UHF.

  ==> Iterations <==

                           Total Energy        Delta E     RMS |[F,P]|

   @DF-RKS iter SAD:  -267.31399039286316   -2.67314e+02   0.00000e+00 
   @DF-RKS iter   1:  -271.62446621202724   -4.31048e+00   1.80259e-03 DIIS
   @DF-RKS iter   2:  -271.62694449043192   -2.47828e-03   1.19826e-03 DIIS
   @DF-RKS iter   3:  -271.62910370442194   -2.15921e-03   1.23418e-04 DIIS
   @DF-RKS iter   4:  -271.62912596683788   -2.22624e-05   2.32114e-05 DIIS
   @DF-RKS iter   5:  -271.62912671672922   -7.49891e-07   3.11464e-06 DIIS
   @DF-RKS iter   6:  -271.62912673068388   -1.39547e-08   4.50872e-07 DIIS
  Energy and wave function converged.


  ==> Post-Iterations <==

    Orbital Energies [Eh]
    ---------------------

    Doubly Occupied:                                                      

       1A    -10.050056     2A    -10.041819     3A    -10.041249  
       4A    -10.040477     5A    -10.038681     6A    -10.038477  
       7A    -10.034136     8A     -0.819215     9A     -0.743485  
      10A     -0.719249    11A     -0.655020    12A     -0.598261  
      13A     -0.566206    14A     -0.500231    15A     -0.465531  
      16A     -0.450911    17A     -0.412593    18A     -0.388380  
      19A     -0.372236    20A     -0.362574    21A     -0.343443  
      22A     -0.327649    23A     -0.322703    24A     -0.315910  
      25A     -0.305442    26A     -0.262596    27A     -0.260088  
      28A     -0.258741  

    Virtual:                                                              

      29A      0.355959    30A      0.377799    31A      0.385151  
      32A      0.412282    33A      0.424629    34A      0.425864  
      35A      0.446449    36A      0.447694    37A      0.481757  
      38A      0.486175    39A      0.501404    40A      0.505795  
      41A      0.525651    42A      0.541809    43A      0.550629  
      44A      0.555239    45A      0.564210    46A      0.567830  
      47A      0.597822    48A      0.607265    49A      0.623350  

    Final Occupation by Irrep:
              A 
    DOCC [    28 ]

  @DF-RKS Final Energy:  -271.62912673068388

   => Energetics <=

    Nuclear Repulsion Energy =            331.7262664232769112
    One-Electron Energy =               -1023.9189592090801852
    Two-Electron Energy =                 453.2318258785539342
    DFT Exchange-Correlation Energy =     -32.6682598234345605
    Empirical Dispersion Energy =           0.0000000000000000
    VV10 Nonlocal Energy =                  0.0000000000000000
    Total Energy =                       -271.6291267306838790

Computation Completed


Properties will be evaluated at   0.000000,   0.000000,   0.000000 [a0]

Properties computed using the SCF density matrix

  Nuclear Dipole Moment: [e a0]
     X:    -1.0138      Y:    -0.2146      Z:     0.6814

  Electronic Dipole Moment: [e a0]
     X:     1.0160      Y:     0.2190      Z:    -0.6897

  Dipole Moment: [e a0]
     X:     0.0022      Y:     0.0044      Z:    -0.0084     Total:     0.0097

  Dipole Moment: [D]
     X:     0.0055      Y:     0.0111      Z:    -0.0213     Total:     0.0246


*** tstop() called on lenovo at Tue Jan 18 21:40:10 2022
Module time:
	user time   =      10.79 seconds =       0.18 minutes
	system time =       0.32 seconds =       0.01 minutes
	total time  =          5 seconds =       0.08 minutes
Total time:
	user time   =      10.79 seconds =       0.18 minutes
	system time =       0.32 seconds =       0.01 minutes
	total time  =          5 seconds =       0.08 minutes

    Psi4 stopped on: Tuesday, 18 January 2022 09:40PM
    Psi4 wall time for execution: 0:00:05.04

*** Psi4 exiting successfully. Buy a developer a beer!
