
    -----------------------------------------------------------------------
          Psi4: An Open-Source Ab Initio Electronic Structure Package
                               Psi4 1.3.2 release

                         Git: Rev {} zzzzzzz 


    R. M. Parrish, L. A. Burns, D. G. A. Smith, A. C. Simmonett,
    A. E. DePrince III, E. G. Hohenstein, U. Bozkaya, A. Yu. Sokolov,
    R. Di Remigio, R. M. Richard, J. F. Gonthier, A. M. James,
    H. R. McAlexander, A. Kumar, M. Saitow, X. Wang, B. P. Pritchard,
    P. Verma, H. F. Schaefer III, K. Patkowski, R. A. King, E. F. Valeev,
    F. A. Evangelista, J. M. Turney, T. D. Crawford, and C. D. Sherrill,
    J. Chem. Theory Comput. 13(7) pp 3185--3197 (2017).
    (doi: 10.1021/acs.jctc.7b00174)


                         Additional Contributions by
    P. Kraus, H. Kruse, M. H. Lechner, M. C. Schieber, R. A. Shaw,
    A. Alenaizan, R. Galvelis, Z. L. Glick, S. Lehtola, and J. P. Misiewicz

    -----------------------------------------------------------------------


    Psi4 started on: Tuesday, 18 January 2022 09:40PM

    Process ID: 825522
    Host:       lenovo
    PSIDATADIR: /usr/share/psi4
    Memory:     500.0 MiB
    Threads:    4
    
  ==> Input File <==

--------------------------------------------------------------------------
# PBE0/STO-3G calculation on methylcyclohexane conformer #2 

memory 4 gb

molecule {
	    C    -0.9722110106  -0.0327178145  -0.3317394209
	    C    -0.3230575991   1.3051763356   0.0549465016
	    C    -0.2799358137  -1.1703549653   0.4084020749
	    C     1.1707491624   1.1735533229   0.3780596124
	    C     1.1865243780  -1.3080141347  -0.0202102127
	    C     1.8009202197   0.0403620054  -0.4174616034
	    C    -2.4717798740  -0.0105506963  -0.0908392374
	    H    -0.8087844643  -0.1950236872  -1.4056295336
	    H    -0.8495212096   1.7199328933   0.9221690658
	    H    -0.4695454065   2.0218373804  -0.7599221104
	    H    -0.8113728409  -2.1127804385   0.2447639560
	    H    -0.3428586988  -0.9712230168   1.4854308307
	    H     1.3043952140   0.9702107563   1.4465484474
	    H     1.6840387395   2.1191808048   0.1839931571
	    H     1.2636624230  -2.0050932080  -0.8602184482
	    H     1.7632973914  -1.7516361470   0.7971908469
	    H     1.6407454705   0.2251060645  -1.4855926815
	    H     2.8844283912   0.0183001103  -0.2730171679
	    H    -2.6900359915   0.0903337794   0.9772603697
	    H    -2.9448589677   0.8307839411  -0.6052679767
	    H    -2.9477420718  -0.9296150780  -0.4433568897
}

set basis STO-3G
energy('pbe0')
--------------------------------------------------------------------------

  Memory set to   3.725 GiB by Python driver.

*** tstart() called on lenovo
*** at Tue Jan 18 21:40:00 2022

   => Loading Basis Set <=

    Name: STO-3G
    Role: ORBITAL
    Keyword: BASIS
    atoms 1-7  entry C          line    59 file /home/susi/dokumentit/tutkimus/linuxchemistry/suppinfo/psi4/methylcyclohexane/sto-3g.gbs 
    atoms 8-21 entry H          line    17 file /home/susi/dokumentit/tutkimus/linuxchemistry/suppinfo/psi4/methylcyclohexane/sto-3g.gbs 


         ---------------------------------------------------------
                                   SCF
               by Justin Turney, Rob Parrish, Andy Simmonett
                          and Daniel G. A. Smith
                              RKS Reference
                        4 Threads,   3814 MiB Core
         ---------------------------------------------------------

  ==> Geometry <==

    Molecular point group: c1
    Full point group: C1

    Geometry (in Angstrom), charge = 0, multiplicity = 1:

       Center              X                  Y                   Z               Mass       
    ------------   -----------------  -----------------  -----------------  -----------------
         C           -0.972211010586    -0.032717814511    -0.331739420902    12.000000000000
         C           -0.323057599086     1.305176335589     0.054946501598    12.000000000000
         C           -0.279935813686    -1.170354965311     0.408402074898    12.000000000000
         C            1.170749162414     1.173553322889     0.378059612398    12.000000000000
         C            1.186524378014    -1.308014134711    -0.020210212702    12.000000000000
         C            1.800920219714     0.040362005389    -0.417461603402    12.000000000000
         C           -2.471779873986    -0.010550696311    -0.090839237402    12.000000000000
         H           -0.808784464286    -0.195023687211    -1.405629533602     1.007825032230
         H           -0.849521209586     1.719932893289     0.922169065798     1.007825032230
         H           -0.469545406486     2.021837380389    -0.759922110402     1.007825032230
         H           -0.811372840886    -2.112780438511     0.244763955998     1.007825032230
         H           -0.342858698786    -0.971223016811     1.485430830698     1.007825032230
         H            1.304395214014     0.970210756289     1.446548447398     1.007825032230
         H            1.684038739514     2.119180804789     0.183993157098     1.007825032230
         H            1.263662423014    -2.005093208011    -0.860218448202     1.007825032230
         H            1.763297391414    -1.751636147011     0.797190846898     1.007825032230
         H            1.640745470514     0.225106064489    -1.485592681502     1.007825032230
         H            2.884428391214     0.018300110289    -0.273017167902     1.007825032230
         H           -2.690035991486     0.090333779389     0.977260369698     1.007825032230
         H           -2.944858967686     0.830783941089    -0.605267976702     1.007825032230
         H           -2.947742071786    -0.929615078011    -0.443356889702     1.007825032230

  Running in c1 symmetry.

  Rotational constants: A =      0.13921  B =      0.07423  C =      0.05482 [cm^-1]
  Rotational constants: A =   4173.37434  B =   2225.48720  C =   1643.38170 [MHz]
  Nuclear repulsion =  330.300707310715211

  Charge       = 0
  Multiplicity = 1
  Electrons    = 56
  Nalpha       = 28
  Nbeta        = 28

  ==> Algorithm <==

  SCF Algorithm Type is DF.
  DIIS enabled.
  MOM disabled.
  Fractional occupation disabled.
  Guess Type is SAD.
  Energy threshold   = 1.00e-06
  Density threshold  = 1.00e-06
  Integral threshold = 0.00e+00

  ==> Primary Basis <==

  Basis Set: STO-3G
    Blend: STO-3G
    Number of shells: 35
    Number of basis function: 49
    Number of Cartesian functions: 49
    Spherical Harmonics?: true
    Max angular momentum: 1

  ==> DFT Potential <==

   => Composite Functional: PBE0 <= 

    PBE0 Hyb-GGA Exchange-Correlation Functional

    C. Adamo and V. Barone, J. Chem. Phys. 110, 6158 (1999)
    M. Ernzerhof and G. E. Scuseria, J. Chem. Phys. 110, 5029 (1999)

    Deriv               =              1
    GGA                 =           TRUE
    Meta                =          FALSE

    Exchange Hybrid     =           TRUE
    MP2 Hybrid          =          FALSE

   => Exchange Functionals <=

    0.7500   Perdew, Burke & Ernzerhof

   => Exact (HF) Exchange <=

    0.2500               HF 

   => Correlation Functionals <=

    1.0000   Perdew, Burke & Ernzerhof

   => Molecular Quadrature <=

    Radial Scheme          =       TREUTLER
    Pruning Scheme         =           FLAT
    Nuclear Scheme         =       TREUTLER

    BS radius alpha        =              1
    Pruning alpha          =              1
    Radial Points          =             75
    Spherical Points       =            302
    Total Points           =         464251
    Total Blocks           =           3444
    Max Points             =            256
    Max Functions          =             48

   => Loading Basis Set <=

    Name: (STO-3G AUX)
    Role: JKFIT
    Keyword: DF_BASIS_SCF
    atoms 1-7  entry C          line   203 file /usr/share/psi4/basis/def2-svp-jkfit.gbs 
    atoms 8-21 entry H          line    23 file /usr/share/psi4/basis/def2-svp-jkfit.gbs 

  ==> Pre-Iterations <==

   -------------------------------------------------------
    Irrep   Nso     Nmo     Nalpha   Nbeta   Ndocc  Nsocc
   -------------------------------------------------------
     A         49      49       0       0       0       0
   -------------------------------------------------------
    Total      49      49      28      28      28       0
   -------------------------------------------------------

  ==> Integral Setup <==

  DFHelper Memory: AOs need 0.019 GiB; user supplied 2.214 GiB. Using in-core AOs.

  ==> MemDFJK: Density-Fitted J/K Matrices <==

    J tasked:                   Yes
    K tasked:                   Yes
    wK tasked:                   No
    OpenMP threads:               4
    Memory [MiB]:              2266
    Algorithm:                 Core
    Schwarz Cutoff:           1E-12
    Mask sparsity (%):       1.1662
    Fitting Condition:        1E-10

   => Auxiliary Basis Set <=

  Basis Set: (STO-3G AUX)
    Blend: DEF2-SVP-JKFIT
    Number of shells: 259
    Number of basis function: 777
    Number of Cartesian functions: 903
    Spherical Harmonics?: true
    Max angular momentum: 4

  Cached 100.0% of DFT collocation blocks in 0.580 [GiB].

  Minimum eigenvalue in the overlap matrix is 1.9002437003E-01.
  Using Symmetric Orthogonalization.

  SCF Guess: Superposition of Atomic Densities via on-the-fly atomic UHF.

  ==> Iterations <==

                           Total Energy        Delta E     RMS |[F,P]|

   @DF-RKS iter SAD:  -267.31717346413609   -2.67317e+02   0.00000e+00 
   @DF-RKS iter   1:  -271.62484183011259   -4.30767e+00   1.80159e-03 DIIS
   @DF-RKS iter   2:  -271.62735542057732   -2.51359e-03   1.18707e-03 DIIS
   @DF-RKS iter   3:  -271.62947406791972   -2.11865e-03   1.24070e-04 DIIS
   @DF-RKS iter   4:  -271.62949627229727   -2.22044e-05   2.62935e-05 DIIS
   @DF-RKS iter   5:  -271.62949724288143   -9.70584e-07   2.68910e-06 DIIS
   @DF-RKS iter   6:  -271.62949725341826   -1.05368e-08   4.43764e-07 DIIS
  Energy and wave function converged.


  ==> Post-Iterations <==

    Orbital Energies [Eh]
    ---------------------

    Doubly Occupied:                                                      

       1A    -10.049900     2A    -10.042103     3A    -10.041453  
       4A    -10.040813     5A    -10.038520     6A    -10.038308  
       7A    -10.034752     8A     -0.819185     9A     -0.745176  
      10A     -0.718547    11A     -0.655009    12A     -0.592174  
      13A     -0.573340    14A     -0.503054    15A     -0.464602  
      16A     -0.442080    17A     -0.416712    18A     -0.389026  
      19A     -0.380961    20A     -0.353517    21A     -0.340959  
      22A     -0.331143    23A     -0.322827    24A     -0.312204  
      25A     -0.309758    26A     -0.264079    27A     -0.259831  
      28A     -0.257412  

    Virtual:                                                              

      29A      0.355567    30A      0.372710    31A      0.388531  
      32A      0.411773    33A      0.426390    34A      0.429713  
      35A      0.443018    36A      0.445363    37A      0.479954  
      38A      0.489285    39A      0.506650    40A      0.510464  
      41A      0.529742    42A      0.541831    43A      0.548509  
      44A      0.555839    45A      0.560739    46A      0.565562  
      47A      0.595831    48A      0.604596    49A      0.624498  

    Final Occupation by Irrep:
              A 
    DOCC [    28 ]

  @DF-RKS Final Energy:  -271.62949725341826

   => Energetics <=

    Nuclear Repulsion Energy =            330.3007073107152110
    One-Electron Energy =               -1021.0641149788713165
    Two-Electron Energy =                 451.8025532562539865
    DFT Exchange-Correlation Energy =     -32.6686428415161174
    Empirical Dispersion Energy =           0.0000000000000000
    VV10 Nonlocal Energy =                  0.0000000000000000
    Total Energy =                       -271.6294972534182079

Computation Completed


Properties will be evaluated at   0.000000,   0.000000,   0.000000 [a0]

Properties computed using the SCF density matrix

  Nuclear Dipole Moment: [e a0]
     X:    -1.2414      Y:     0.0284      Z:     0.2103

  Electronic Dipole Moment: [e a0]
     X:     1.2468      Y:    -0.0268      Z:    -0.2167

  Dipole Moment: [e a0]
     X:     0.0054      Y:     0.0017      Z:    -0.0063     Total:     0.0085

  Dipole Moment: [D]
     X:     0.0138      Y:     0.0042      Z:    -0.0161     Total:     0.0217


*** tstop() called on lenovo at Tue Jan 18 21:40:05 2022
Module time:
	user time   =      10.39 seconds =       0.17 minutes
	system time =       0.25 seconds =       0.00 minutes
	total time  =          5 seconds =       0.08 minutes
Total time:
	user time   =      10.39 seconds =       0.17 minutes
	system time =       0.25 seconds =       0.00 minutes
	total time  =          5 seconds =       0.08 minutes

    Psi4 stopped on: Tuesday, 18 January 2022 09:40PM
    Psi4 wall time for execution: 0:00:04.90

*** Psi4 exiting successfully. Buy a developer a beer!
