      -----------------------------------------------------------      
     |                   =====================                   |     
     |                           x T B                           |     
     |                   =====================                   |     
     |                         S. Grimme                         |     
     |          Mulliken Center for Theoretical Chemistry        |     
     |                    University of Bonn                     |     
      -----------------------------------------------------------      

   * xtb version 6.4.1-2.fc34.fc34 compiled by Fedora project on Wed Jun 30 15:53:26 UTC 2021

   xtb is free software: you can redistribute it and/or modify it under
   the terms of the GNU Lesser General Public License as published by
   the Free Software Foundation, either version 3 of the License, or
   (at your option) any later version.
   
   xtb is distributed in the hope that it will be useful,
   but WITHOUT ANY WARRANTY; without even the implied warranty of
   MERCHANTABILITY or FITNESS FOR A PARTICULAR PURPOSE.  See the
   GNU Lesser General Public License for more details.
   
   Cite this work as:
   * C. Bannwarth, E. Caldeweyher, S. Ehlert, A. Hansen, P. Pracht,
     J. Seibert, S. Spicher, S. Grimme, WIREs Comput. Mol. Sci., 2020, 11,
     e01493. DOI: 10.1002/wcms.1493
   
   for GFN2-xTB:
   * C. Bannwarth, S. Ehlert and S. Grimme., J. Chem. Theory Comput., 2019,
     15, 1652-1671. DOI: 10.1021/acs.jctc.8b01176
   for GFN1-xTB:
   * S. Grimme, C. Bannwarth, P. Shushkov, J. Chem. Theory Comput., 2017,
     13, 1989-2009. DOI: 10.1021/acs.jctc.7b00118
   for GFN0-xTB:
   * P. Pracht, E. Caldeweyher, S. Ehlert, S. Grimme, ChemRxiv, 2019, preprint.
     DOI: 10.26434/chemrxiv.8326202.v1
   for GFN-FF:
   * S. Spicher and S. Grimme, Angew. Chem. Int. Ed., 2020, 59, 15665-15673.
     DOI: 10.1002/anie.202004239
   
   for DFT-D4:
   * E. Caldeweyher, C. Bannwarth and S. Grimme, J. Chem. Phys., 2017,
     147, 034112. DOI: 10.1063/1.4993215
   * E. Caldeweyher, S. Ehlert, A. Hansen, H. Neugebauer, S. Spicher,
     C. Bannwarth and S. Grimme, J. Chem. Phys., 2019, 150, 154122.
     DOI: 10.1063/1.5090222
   * E. Caldeweyher, J.-M. Mewes, S. Ehlert and S. Grimme, Phys. Chem. Chem. Phys.
     2020, 22, 8499-8512. DOI: 10.1039/D0CP00502A
   
   for sTDA-xTB:
   * S. Grimme and C. Bannwarth, J. Chem. Phys., 2016, 145, 054103.
     DOI: 10.1063/1.4959605
   
   in the mass-spec context:
   * V. Asgeirsson, C. Bauer and S. Grimme, Chem. Sci., 2017, 8, 4879.
     DOI: 10.1039/c7sc00601b
   * J. Koopman and S. Grimme, ACS Omega 2019, 4, 12, 15120-15133.
     DOI: 10.1021/acsomega.9b02011
   
   for metadynamics refer to:
   * S. Grimme, J. Chem. Theory Comput., 2019, 155, 2847-2862
     DOI: 10.1021/acs.jctc.9b00143
   
   for SPH calculations refer to:
   * S. Spicher and S. Grimme, J. Chem. Theory Comput., 2021, 17, 1701-1714
     DOI: 10.1021/acs.jctc.0c01306
   
   with help from (in alphabetical order)
   P. Atkinson, C. Bannwarth, F. Bohle, G. Brandenburg, E. Caldeweyher
   M. Checinski, S. Dohm, S. Ehlert, S. Ehrlich, I. Gerasimov, J. Koopman
   C. Lavigne, S. Lehtola, F. März, M. Müller, F. Musil, H. Neugebauer
   J. Pisarek, C. Plett, P. Pracht, J. Seibert, P. Shushkov, S. Spicher
   M. Stahn, M. Steiner, T. Strunk, J. Stückrath, T. Rose, and J. Unsleber
   
 * started run on 2021/08/09 at 17:30:49.689     

           -------------------------------------------------
          |                Calculation Setup                |
           -------------------------------------------------

          program call               : xtb -gfn 1 conformer3.xyz
          hostname                   : thinkpad
          coordinate file            : conformer3.xyz
          omp threads                :                     4
          number of atoms            :                    21
          number of electrons        :                    42
          charge                     :                     0
          spin                       :                   0.0
          first test random number   :      0.86067293084825

   ID    Z sym.   atoms
    1    6 C      1-7
    2    1 H      8-21
########################################################################
[WARNING] Please study the warnings concerning your input carefully
-1- prog_main_parseArguments: the use of '-gfn' is discouraged, please use '--gfn' next time
########################################################################

           -------------------------------------------------
          |                 G F N 1 - x T B                 |
           -------------------------------------------------

        Reference                      10.1021/acs.jctc.7b00118
      * Hamiltonian:
        H0-scaling (s, p, d)           1.850000    2.250000    2.000000
        zeta-weighting                 0.000000
      * Dispersion:
        s8                             2.400000
        a1                             0.630000
        a2                             5.000000
        s9                             0.000000
      * Repulsion:
        kExp                           1.500000
        rExp                           1.000000
      * Coulomb:
        alpha                          2.000000
        third order                    atomic
        anisotropic                    false
      * Halogen bond correction:
        rad-scale                      1.300000
        damping                        0.440000

q/qsh data taken from xtbrestart

          ...................................................
          :                      SETUP                      :
          :.................................................:
          :  # basis functions                  56          :
          :  # atomic orbitals                  56          :
          :  # shells                           42          :
          :  # electrons                        42          :
          :  # halogen bonds                     0          :
          :  max. iterations                   250          :
          :  Hamiltonian                  GFN1-xTB          :
          :  restarted?                       true          :
          :  GBSA solvation                  false          :
          :  PC potential                    false          :
          :  electronic temp.          300.0000000     K    :
          :  accuracy                    1.0000000          :
          :  -> integral cutoff          0.2500000E+02      :
          :  -> integral neglect         0.1000000E-07      :
          :  -> SCF convergence          0.1000000E-05 Eh   :
          :  -> wf. convergence          0.2000000E-04 e    :
          :  Broyden damping             0.4000000          :
          ...................................................

 iter      E             dE          RMSdq      gap      omega  full diag
   1    -22.6887094 -0.226887E+02  0.300E-02    8.68       0.0  T
   2    -22.6887146 -0.520515E-05  0.144E-02    8.68       1.5  T
   3    -22.6887152 -0.565603E-06  0.299E-03    8.68       7.3  T
   4    -22.6887152 -0.363426E-08  0.913E-04    8.68      23.9  T
   5    -22.6887152 -0.246011E-08  0.115E-04    8.68     190.0  T
   6    -22.6887152 -0.468781E-10  0.227E-05    8.68     962.7  T

   *** convergence criteria satisfied after 6 iterations ***

         #    Occupation            Energy/Eh            Energy/eV
      -------------------------------------------------------------
         1        2.0000           -0.6653613             -18.1054
       ...           ...                  ...                  ...
        15        2.0000           -0.4987410             -13.5714
        16        2.0000           -0.4869141             -13.2496
        17        2.0000           -0.4780955             -13.0096
        18        2.0000           -0.4708023             -12.8112
        19        2.0000           -0.4563583             -12.4181
        20        2.0000           -0.4511076             -12.2753
        21        2.0000           -0.4481232             -12.1941 (HOMO)
        22                         -0.1289718              -3.5095 (LUMO)
        23                         -0.1160293              -3.1573
        24                         -0.1119507              -3.0463
        25                         -0.1046208              -2.8469
        26                         -0.1011297              -2.7519
       ...                                ...                  ...
        56                          0.4839213              13.1682
      -------------------------------------------------------------
                  HL-Gap            0.3191514 Eh            8.6846 eV
             Fermi-level           -0.2885475 Eh           -7.8518 eV

 SCC (total)                   0 d,  0 h,  0 min,  0.013 sec
 SCC setup                      ...        0 min,  0.000 sec (  1.171%)
 Dispersion                     ...        0 min,  0.000 sec (  0.411%)
 classical contributions        ...        0 min,  0.000 sec (  0.292%)
 integral evaluation            ...        0 min,  0.002 sec ( 13.074%)
 iterations                     ...        0 min,  0.007 sec ( 56.053%)
 molecular gradient             ...        0 min,  0.003 sec ( 27.361%)
 printout                       ...        0 min,  0.000 sec (  1.454%)

         :::::::::::::::::::::::::::::::::::::::::::::::::::::
         ::                     SUMMARY                     ::
         :::::::::::::::::::::::::::::::::::::::::::::::::::::
         :: total energy             -22.385808215414 Eh    ::
         :: gradient norm              0.029440098882 Eh/a0 ::
         :: HOMO-LUMO gap              8.684550999485 eV    ::
         ::.................................................::
         :: SCC energy               -22.688715162871 Eh    ::
         :: -> electrostatic           0.000331824691 Eh    ::
         :: repulsion energy           0.311785883013 Eh    ::
         :: dispersion energy         -0.008878935555 Eh    ::
         :: halogen bond corr.         0.000000000000 Eh    ::
         :: add. restraining           0.000000000000 Eh    ::
         :: total charge              -0.000000000000 e     ::
         :::::::::::::::::::::::::::::::::::::::::::::::::::::

           -------------------------------------------------
          |                Property Printout                |
           -------------------------------------------------

    * Orbital Energies and Occupations

         #    Occupation            Energy/Eh            Energy/eV
      -------------------------------------------------------------
         1        2.0000           -0.6653613             -18.1054
       ...           ...                  ...                  ...
         9        2.0000           -0.5477881             -14.9061
        10        2.0000           -0.5416802             -14.7399
        11        2.0000           -0.5346082             -14.5474
        12        2.0000           -0.5267339             -14.3332
        13        2.0000           -0.5091476             -13.8546
        14        2.0000           -0.5040614             -13.7162
        15        2.0000           -0.4987410             -13.5714
        16        2.0000           -0.4869141             -13.2496
        17        2.0000           -0.4780955             -13.0096
        18        2.0000           -0.4708023             -12.8112
        19        2.0000           -0.4563583             -12.4181
        20        2.0000           -0.4511076             -12.2753
        21        2.0000           -0.4481232             -12.1941 (HOMO)
        22                         -0.1289718              -3.5095 (LUMO)
        23                         -0.1160293              -3.1573
        24                         -0.1119507              -3.0463
        25                         -0.1046208              -2.8469
        26                         -0.1011297              -2.7519
        27                         -0.0965249              -2.6266
        28                         -0.0786175              -2.1393
        29                         -0.0647111              -1.7609
        30                         -0.0596829              -1.6241
        31                         -0.0560990              -1.5265
        32                         -0.0423145              -1.1514
       ...                                ...                  ...
        56                          0.4839213              13.1682
      -------------------------------------------------------------
                  HL-Gap            0.3191514 Eh            8.6846 eV
             Fermi-level           -0.2885475 Eh           -7.8518 eV

  Mulliken/CM5 charges         n(s)   n(p)   n(d)
     1C    -0.00636 -0.07823   1.051  2.955  0.000
     2C    -0.05086 -0.15901   1.032  3.019  0.000
     3C    -0.05086 -0.15901   1.032  3.019  0.000
     4C    -0.04385 -0.15358   1.027  3.017  0.000
     5C    -0.04385 -0.15358   1.027  3.017  0.000
     6C    -0.04556 -0.15530   1.027  3.019  0.000
     7C    -0.09322 -0.24219   1.012  3.081  0.000
     8H     0.01848  0.07788   0.982  0.000  0.000
     9H     0.02154  0.07764   0.978  0.000  0.000
    10H     0.02362  0.07863   0.976  0.000  0.000
    11H     0.02363  0.07864   0.976  0.000  0.000
    12H     0.02153  0.07764   0.978  0.000  0.000
    13H     0.02419  0.07851   0.976  0.000  0.000
    14H     0.02169  0.07713   0.978  0.000  0.000
    15H     0.02169  0.07713   0.978  0.000  0.000
    16H     0.02419  0.07851   0.976  0.000  0.000
    17H     0.02392  0.07824   0.976  0.000  0.000
    18H     0.02207  0.07750   0.978  0.000  0.000
    19H     0.02965  0.08180   0.970  0.000  0.000
    20H     0.02874  0.07987   0.971  0.000  0.000
    21H     0.02963  0.08178   0.970  0.000  0.000

Wiberg/Mayer (AO) data.
largest (>0.10) Wiberg bond orders for each atom

 ---------------------------------------------------------------------------
     #   Z sym  total        # sym  WBO       # sym  WBO       # sym  WBO
 ---------------------------------------------------------------------------
     1   6 C    3.995 --     7 C    1.003     3 C    0.998     2 C    0.998
                             8 H    0.974
     2   6 C    3.998 --     4 C    1.006     1 C    0.998     9 H    0.978
                            10 H    0.978
     3   6 C    3.998 --     5 C    1.006     1 C    0.998    12 H    0.978
                            11 H    0.978
     4   6 C    3.998 --     6 C    1.007     2 C    1.006    14 H    0.979
                            13 H    0.978
     5   6 C    3.998 --     6 C    1.007     3 C    1.006    15 H    0.979
                            16 H    0.978
     6   6 C    3.998 --     4 C    1.007     5 C    1.007    18 H    0.979
                            17 H    0.978
     7   6 C    3.995 --     1 C    1.003    20 H    0.988    21 H    0.986
                            19 H    0.986
     8   1 H    1.006 --     1 C    0.974
     9   1 H    1.004 --     2 C    0.978
    10   1 H    1.007 --     2 C    0.978
    11   1 H    1.007 --     3 C    0.978
    12   1 H    1.004 --     3 C    0.978
    13   1 H    1.007 --     4 C    0.978
    14   1 H    1.004 --     4 C    0.979
    15   1 H    1.004 --     5 C    0.979
    16   1 H    1.007 --     5 C    0.978
    17   1 H    1.006 --     6 C    0.978
    18   1 H    1.004 --     6 C    0.979
    19   1 H    1.004 --     7 C    0.986
    20   1 H    1.006 --     7 C    0.988
    21   1 H    1.004 --     7 C    0.986
 ---------------------------------------------------------------------------

Topologies differ in total number of bonds
Writing topology from bond orders to xtbtopo.mol

 dipole moment from electron density (au)
     X       Y       Z   
  -0.0037  -0.0000  -0.0065  total (Debye):    0.019


           -------------------------------------------------
          | TOTAL ENERGY              -22.385808215414 Eh   |
          | GRADIENT NORM               0.029440098882 Eh/α |
          | HOMO-LUMO GAP               8.684550999485 eV   |
           -------------------------------------------------

------------------------------------------------------------------------
 * finished run on 2021/08/09 at 17:30:49.707     
------------------------------------------------------------------------
 total:
 * wall-time:     0 d,  0 h,  0 min,  0.019 sec
 *  cpu-time:     0 d,  0 h,  0 min,  0.065 sec
 * ratio c/w:     3.466 speedup
 SCF:
 * wall-time:     0 d,  0 h,  0 min,  0.013 sec
 *  cpu-time:     0 d,  0 h,  0 min,  0.045 sec
 * ratio c/w:     3.531 speedup

