      -----------------------------------------------------------      
     |                   =====================                   |     
     |                           x T B                           |     
     |                   =====================                   |     
     |                         S. Grimme                         |     
     |          Mulliken Center for Theoretical Chemistry        |     
     |                    University of Bonn                     |     
      -----------------------------------------------------------      

   * xtb version 6.4.1-2.fc34.fc34 compiled by Fedora project on Wed Jun 30 15:53:26 UTC 2021

   xtb is free software: you can redistribute it and/or modify it under
   the terms of the GNU Lesser General Public License as published by
   the Free Software Foundation, either version 3 of the License, or
   (at your option) any later version.
   
   xtb is distributed in the hope that it will be useful,
   but WITHOUT ANY WARRANTY; without even the implied warranty of
   MERCHANTABILITY or FITNESS FOR A PARTICULAR PURPOSE.  See the
   GNU Lesser General Public License for more details.
   
   Cite this work as:
   * C. Bannwarth, E. Caldeweyher, S. Ehlert, A. Hansen, P. Pracht,
     J. Seibert, S. Spicher, S. Grimme, WIREs Comput. Mol. Sci., 2020, 11,
     e01493. DOI: 10.1002/wcms.1493
   
   for GFN2-xTB:
   * C. Bannwarth, S. Ehlert and S. Grimme., J. Chem. Theory Comput., 2019,
     15, 1652-1671. DOI: 10.1021/acs.jctc.8b01176
   for GFN1-xTB:
   * S. Grimme, C. Bannwarth, P. Shushkov, J. Chem. Theory Comput., 2017,
     13, 1989-2009. DOI: 10.1021/acs.jctc.7b00118
   for GFN0-xTB:
   * P. Pracht, E. Caldeweyher, S. Ehlert, S. Grimme, ChemRxiv, 2019, preprint.
     DOI: 10.26434/chemrxiv.8326202.v1
   for GFN-FF:
   * S. Spicher and S. Grimme, Angew. Chem. Int. Ed., 2020, 59, 15665-15673.
     DOI: 10.1002/anie.202004239
   
   for DFT-D4:
   * E. Caldeweyher, C. Bannwarth and S. Grimme, J. Chem. Phys., 2017,
     147, 034112. DOI: 10.1063/1.4993215
   * E. Caldeweyher, S. Ehlert, A. Hansen, H. Neugebauer, S. Spicher,
     C. Bannwarth and S. Grimme, J. Chem. Phys., 2019, 150, 154122.
     DOI: 10.1063/1.5090222
   * E. Caldeweyher, J.-M. Mewes, S. Ehlert and S. Grimme, Phys. Chem. Chem. Phys.
     2020, 22, 8499-8512. DOI: 10.1039/D0CP00502A
   
   for sTDA-xTB:
   * S. Grimme and C. Bannwarth, J. Chem. Phys., 2016, 145, 054103.
     DOI: 10.1063/1.4959605
   
   in the mass-spec context:
   * V. Asgeirsson, C. Bauer and S. Grimme, Chem. Sci., 2017, 8, 4879.
     DOI: 10.1039/c7sc00601b
   * J. Koopman and S. Grimme, ACS Omega 2019, 4, 12, 15120-15133.
     DOI: 10.1021/acsomega.9b02011
   
   for metadynamics refer to:
   * S. Grimme, J. Chem. Theory Comput., 2019, 155, 2847-2862
     DOI: 10.1021/acs.jctc.9b00143
   
   for SPH calculations refer to:
   * S. Spicher and S. Grimme, J. Chem. Theory Comput., 2021, 17, 1701-1714
     DOI: 10.1021/acs.jctc.0c01306
   
   with help from (in alphabetical order)
   P. Atkinson, C. Bannwarth, F. Bohle, G. Brandenburg, E. Caldeweyher
   M. Checinski, S. Dohm, S. Ehlert, S. Ehrlich, I. Gerasimov, J. Koopman
   C. Lavigne, S. Lehtola, F. März, M. Müller, F. Musil, H. Neugebauer
   J. Pisarek, C. Plett, P. Pracht, J. Seibert, P. Shushkov, S. Spicher
   M. Stahn, M. Steiner, T. Strunk, J. Stückrath, T. Rose, and J. Unsleber
   
 * started run on 2021/08/09 at 17:30:49.623     

           -------------------------------------------------
          |                Calculation Setup                |
           -------------------------------------------------

          program call               : xtb -gfn 1 conformer1.xyz
          hostname                   : thinkpad
          coordinate file            : conformer1.xyz
          omp threads                :                     4
          number of atoms            :                    21
          number of electrons        :                    42
          charge                     :                     0
          spin                       :                   0.0
          first test random number   :      0.24201139680291

   ID    Z sym.   atoms
    1    6 C      1-7
    2    1 H      8-21
########################################################################
[WARNING] Please study the warnings concerning your input carefully
-1- prog_main_parseArguments: the use of '-gfn' is discouraged, please use '--gfn' next time
########################################################################

           -------------------------------------------------
          |                 G F N 1 - x T B                 |
           -------------------------------------------------

        Reference                      10.1021/acs.jctc.7b00118
      * Hamiltonian:
        H0-scaling (s, p, d)           1.850000    2.250000    2.000000
        zeta-weighting                 0.000000
      * Dispersion:
        s8                             2.400000
        a1                             0.630000
        a2                             5.000000
        s9                             0.000000
      * Repulsion:
        kExp                           1.500000
        rExp                           1.000000
      * Coulomb:
        alpha                          2.000000
        third order                    atomic
        anisotropic                    false
      * Halogen bond correction:
        rad-scale                      1.300000
        damping                        0.440000

q/qsh data taken from xtbrestart

          ...................................................
          :                      SETUP                      :
          :.................................................:
          :  # basis functions                  56          :
          :  # atomic orbitals                  56          :
          :  # shells                           42          :
          :  # electrons                        42          :
          :  # halogen bonds                     0          :
          :  max. iterations                   250          :
          :  Hamiltonian                  GFN1-xTB          :
          :  restarted?                       true          :
          :  GBSA solvation                  false          :
          :  PC potential                    false          :
          :  electronic temp.          300.0000000     K    :
          :  accuracy                    1.0000000          :
          :  -> integral cutoff          0.2500000E+02      :
          :  -> integral neglect         0.1000000E-07      :
          :  -> SCF convergence          0.1000000E-05 Eh   :
          :  -> wf. convergence          0.2000000E-04 e    :
          :  Broyden damping             0.4000000          :
          ...................................................

 iter      E             dE          RMSdq      gap      omega  full diag
   1     -9.5686501 -0.956865E+01  0.339E+01    0.60       0.0  T
   2    -18.7984463 -0.922980E+01  0.209E+01    3.05       1.0  T
   3    -21.8609689 -0.306252E+01  0.796E+00    8.44       1.0  T
   4    -22.6688675 -0.807899E+00  0.616E+00    8.62       1.0  T
   5    -22.2614482  0.407419E+00  0.429E+00    9.92       1.0  T
   6    -22.6921486 -0.430700E+00  0.495E-01    8.69       1.0  T
   7    -22.6925723 -0.423657E-03  0.197E-01    8.72       1.0  T
   8    -22.6928026 -0.230297E-03  0.440E-02    8.69       1.0  T
   9    -22.6928133 -0.107632E-04  0.167E-02    8.71       1.3  T
  10    -22.6928132  0.101198E-06  0.178E-02    8.70       1.2  T
  11    -22.6928173 -0.403652E-05  0.295E-03    8.70       7.4  T
  12    -22.6928173 -0.753357E-07  0.395E-04    8.70      55.2  T
  13    -22.6928173 -0.378371E-08  0.994E-05    8.70     219.5  T
  14    -22.6928173 -0.631566E-10  0.206E-05    8.70    1060.6  T

   *** convergence criteria satisfied after 14 iterations ***

         #    Occupation            Energy/Eh            Energy/eV
      -------------------------------------------------------------
         1        2.0000           -0.6655915             -18.1117
       ...           ...                  ...                  ...
        15        2.0000           -0.4975034             -13.5378
        16        2.0000           -0.4884795             -13.2922
        17        2.0000           -0.4776728             -12.9981
        18        2.0000           -0.4712698             -12.8239
        19        2.0000           -0.4564993             -12.4220
        20        2.0000           -0.4522631             -12.3067
        21        2.0000           -0.4484280             -12.2023 (HOMO)
        22                         -0.1286333              -3.5003 (LUMO)
        23                         -0.1160781              -3.1586
        24                         -0.1118845              -3.0445
        25                         -0.1042158              -2.8359
        26                         -0.0997946              -2.7156
       ...                                ...                  ...
        56                          0.4742782              12.9058
      -------------------------------------------------------------
                  HL-Gap            0.3197947 Eh            8.7021 eV
             Fermi-level           -0.2885307 Eh           -7.8513 eV

 SCC (total)                   0 d,  0 h,  0 min,  0.018 sec
 SCC setup                      ...        0 min,  0.000 sec (  0.682%)
 Dispersion                     ...        0 min,  0.000 sec (  0.430%)
 classical contributions        ...        0 min,  0.000 sec (  0.153%)
 integral evaluation            ...        0 min,  0.002 sec (  8.196%)
 iterations                     ...        0 min,  0.013 sec ( 70.932%)
 molecular gradient             ...        0 min,  0.003 sec ( 18.599%)
 printout                       ...        0 min,  0.000 sec (  0.955%)

         :::::::::::::::::::::::::::::::::::::::::::::::::::::
         ::                     SUMMARY                     ::
         :::::::::::::::::::::::::::::::::::::::::::::::::::::
         :: total energy             -22.389209292664 Eh    ::
         :: gradient norm              0.030797945723 Eh/a0 ::
         :: HOMO-LUMO gap              8.702056365569 eV    ::
         ::.................................................::
         :: SCC energy               -22.692817333376 Eh    ::
         :: -> electrostatic           0.000324514806 Eh    ::
         :: repulsion energy           0.312504597403 Eh    ::
         :: dispersion energy         -0.008896556691 Eh    ::
         :: halogen bond corr.         0.000000000000 Eh    ::
         :: add. restraining           0.000000000000 Eh    ::
         :: total charge              -0.000000002353 e     ::
         :::::::::::::::::::::::::::::::::::::::::::::::::::::

           -------------------------------------------------
          |                Property Printout                |
           -------------------------------------------------

    * Orbital Energies and Occupations

         #    Occupation            Energy/Eh            Energy/eV
      -------------------------------------------------------------
         1        2.0000           -0.6655915             -18.1117
       ...           ...                  ...                  ...
         9        2.0000           -0.5478083             -14.9066
        10        2.0000           -0.5425669             -14.7640
        11        2.0000           -0.5353145             -14.5666
        12        2.0000           -0.5265777             -14.3289
        13        2.0000           -0.5081836             -13.8284
        14        2.0000           -0.5041540             -13.7187
        15        2.0000           -0.4975034             -13.5378
        16        2.0000           -0.4884795             -13.2922
        17        2.0000           -0.4776728             -12.9981
        18        2.0000           -0.4712698             -12.8239
        19        2.0000           -0.4564993             -12.4220
        20        2.0000           -0.4522631             -12.3067
        21        2.0000           -0.4484280             -12.2023 (HOMO)
        22                         -0.1286333              -3.5003 (LUMO)
        23                         -0.1160781              -3.1586
        24                         -0.1118845              -3.0445
        25                         -0.1042158              -2.8359
        26                         -0.0997946              -2.7156
        27                         -0.0963593              -2.6221
        28                         -0.0792917              -2.1576
        29                         -0.0688220              -1.8727
        30                         -0.0602162              -1.6386
        31                         -0.0585456              -1.5931
        32                         -0.0457956              -1.2462
       ...                                ...                  ...
        56                          0.4742782              12.9058
      -------------------------------------------------------------
                  HL-Gap            0.3197947 Eh            8.7021 eV
             Fermi-level           -0.2885307 Eh           -7.8513 eV

  Mulliken/CM5 charges         n(s)   n(p)   n(d)
     1C    -0.00477 -0.07691   1.050  2.955  0.000
     2C    -0.05171 -0.15961   1.031  3.021  0.000
     3C    -0.05171 -0.15961   1.031  3.021  0.000
     4C    -0.04378 -0.15347   1.027  3.017  0.000
     5C    -0.04378 -0.15347   1.027  3.017  0.000
     6C    -0.04555 -0.15528   1.027  3.019  0.000
     7C    -0.08953 -0.23839   1.011  3.079  0.000
     8H     0.01782  0.07698   0.982  0.000  0.000
     9H     0.02183  0.07797   0.978  0.000  0.000
    10H     0.02379  0.07881   0.976  0.000  0.000
    11H     0.02379  0.07881   0.976  0.000  0.000
    12H     0.02183  0.07797   0.978  0.000  0.000
    13H     0.02413  0.07845   0.976  0.000  0.000
    14H     0.02163  0.07707   0.978  0.000  0.000
    15H     0.02163  0.07707   0.978  0.000  0.000
    16H     0.02413  0.07845   0.976  0.000  0.000
    17H     0.02393  0.07823   0.976  0.000  0.000
    18H     0.02204  0.07746   0.978  0.000  0.000
    19H     0.02872  0.08030   0.971  0.000  0.000
    20H     0.02683  0.07887   0.973  0.000  0.000
    21H     0.02872  0.08030   0.971  0.000  0.000

Wiberg/Mayer (AO) data.
largest (>0.10) Wiberg bond orders for each atom

 ---------------------------------------------------------------------------
     #   Z sym  total        # sym  WBO       # sym  WBO       # sym  WBO
 ---------------------------------------------------------------------------
     1   6 C    3.995 --     7 C    1.009     2 C    0.997     3 C    0.997
                             8 H    0.972
     2   6 C    3.998 --     4 C    1.006     1 C    0.997     9 H    0.978
                            10 H    0.978
     3   6 C    3.998 --     5 C    1.006     1 C    0.997    12 H    0.978
                            11 H    0.978
     4   6 C    3.998 --     6 C    1.007     2 C    1.006    14 H    0.979
                            13 H    0.978
     5   6 C    3.998 --     6 C    1.007     3 C    1.006    15 H    0.979
                            16 H    0.978
     6   6 C    3.998 --     4 C    1.007     5 C    1.007    18 H    0.979
                            17 H    0.978
     7   6 C    3.996 --     1 C    1.009    20 H    0.986    21 H    0.985
                            19 H    0.985
     8   1 H    1.005 --     1 C    0.972
     9   1 H    1.004 --     2 C    0.978
    10   1 H    1.006 --     2 C    0.978
    11   1 H    1.006 --     3 C    0.978
    12   1 H    1.004 --     3 C    0.978
    13   1 H    1.007 --     4 C    0.978
    14   1 H    1.004 --     4 C    0.979
    15   1 H    1.004 --     5 C    0.979
    16   1 H    1.007 --     5 C    0.978
    17   1 H    1.006 --     6 C    0.978
    18   1 H    1.004 --     6 C    0.979
    19   1 H    1.005 --     7 C    0.985
    20   1 H    1.004 --     7 C    0.986
    21   1 H    1.005 --     7 C    0.985
 ---------------------------------------------------------------------------

Topologies differ in total number of bonds
Writing topology from bond orders to xtbtopo.mol

 dipole moment from electron density (au)
     X       Y       Z   
  -0.0048  -0.0000  -0.0088  total (Debye):    0.025


           -------------------------------------------------
          | TOTAL ENERGY              -22.389209292664 Eh   |
          | GRADIENT NORM               0.030797945723 Eh/α |
          | HOMO-LUMO GAP               8.702056365569 eV   |
           -------------------------------------------------
########################################################################
[WARNING] Runtime exception occurred
-1- restart_readRestart: Version number missmatch in restart file.
########################################################################

------------------------------------------------------------------------
 * finished run on 2021/08/09 at 17:30:49.652     
------------------------------------------------------------------------
 total:
 * wall-time:     0 d,  0 h,  0 min,  0.029 sec
 *  cpu-time:     0 d,  0 h,  0 min,  0.096 sec
 * ratio c/w:     3.256 speedup
 SCF:
 * wall-time:     0 d,  0 h,  0 min,  0.018 sec
 *  cpu-time:     0 d,  0 h,  0 min,  0.061 sec
 * ratio c/w:     3.308 speedup

