      -----------------------------------------------------------      
     |                   =====================                   |     
     |                           x T B                           |     
     |                   =====================                   |     
     |                         S. Grimme                         |     
     |          Mulliken Center for Theoretical Chemistry        |     
     |                    University of Bonn                     |     
      -----------------------------------------------------------      

   * xtb version 6.4.1-2.fc34.fc34 compiled by Fedora project on Wed Jun 30 15:53:26 UTC 2021

   xtb is free software: you can redistribute it and/or modify it under
   the terms of the GNU Lesser General Public License as published by
   the Free Software Foundation, either version 3 of the License, or
   (at your option) any later version.
   
   xtb is distributed in the hope that it will be useful,
   but WITHOUT ANY WARRANTY; without even the implied warranty of
   MERCHANTABILITY or FITNESS FOR A PARTICULAR PURPOSE.  See the
   GNU Lesser General Public License for more details.
   
   Cite this work as:
   * C. Bannwarth, E. Caldeweyher, S. Ehlert, A. Hansen, P. Pracht,
     J. Seibert, S. Spicher, S. Grimme, WIREs Comput. Mol. Sci., 2020, 11,
     e01493. DOI: 10.1002/wcms.1493
   
   for GFN2-xTB:
   * C. Bannwarth, S. Ehlert and S. Grimme., J. Chem. Theory Comput., 2019,
     15, 1652-1671. DOI: 10.1021/acs.jctc.8b01176
   for GFN1-xTB:
   * S. Grimme, C. Bannwarth, P. Shushkov, J. Chem. Theory Comput., 2017,
     13, 1989-2009. DOI: 10.1021/acs.jctc.7b00118
   for GFN0-xTB:
   * P. Pracht, E. Caldeweyher, S. Ehlert, S. Grimme, ChemRxiv, 2019, preprint.
     DOI: 10.26434/chemrxiv.8326202.v1
   for GFN-FF:
   * S. Spicher and S. Grimme, Angew. Chem. Int. Ed., 2020, 59, 15665-15673.
     DOI: 10.1002/anie.202004239
   
   for DFT-D4:
   * E. Caldeweyher, C. Bannwarth and S. Grimme, J. Chem. Phys., 2017,
     147, 034112. DOI: 10.1063/1.4993215
   * E. Caldeweyher, S. Ehlert, A. Hansen, H. Neugebauer, S. Spicher,
     C. Bannwarth and S. Grimme, J. Chem. Phys., 2019, 150, 154122.
     DOI: 10.1063/1.5090222
   * E. Caldeweyher, J.-M. Mewes, S. Ehlert and S. Grimme, Phys. Chem. Chem. Phys.
     2020, 22, 8499-8512. DOI: 10.1039/D0CP00502A
   
   for sTDA-xTB:
   * S. Grimme and C. Bannwarth, J. Chem. Phys., 2016, 145, 054103.
     DOI: 10.1063/1.4959605
   
   in the mass-spec context:
   * V. Asgeirsson, C. Bauer and S. Grimme, Chem. Sci., 2017, 8, 4879.
     DOI: 10.1039/c7sc00601b
   * J. Koopman and S. Grimme, ACS Omega 2019, 4, 12, 15120-15133.
     DOI: 10.1021/acsomega.9b02011
   
   for metadynamics refer to:
   * S. Grimme, J. Chem. Theory Comput., 2019, 155, 2847-2862
     DOI: 10.1021/acs.jctc.9b00143
   
   for SPH calculations refer to:
   * S. Spicher and S. Grimme, J. Chem. Theory Comput., 2021, 17, 1701-1714
     DOI: 10.1021/acs.jctc.0c01306
   
   with help from (in alphabetical order)
   P. Atkinson, C. Bannwarth, F. Bohle, G. Brandenburg, E. Caldeweyher
   M. Checinski, S. Dohm, S. Ehlert, S. Ehrlich, I. Gerasimov, J. Koopman
   C. Lavigne, S. Lehtola, F. März, M. Müller, F. Musil, H. Neugebauer
   J. Pisarek, C. Plett, P. Pracht, J. Seibert, P. Shushkov, S. Spicher
   M. Stahn, M. Steiner, T. Strunk, J. Stückrath, T. Rose, and J. Unsleber
   
 * started run on 2021/08/09 at 17:30:49.884     

           -------------------------------------------------
          |                Calculation Setup                |
           -------------------------------------------------

          program call               : xtb -gfn 2 conformer3.xyz
          hostname                   : thinkpad
          coordinate file            : conformer3.xyz
          omp threads                :                     4
          number of atoms            :                    21
          number of electrons        :                    42
          charge                     :                     0
          spin                       :                   0.0
          first test random number   :      0.88799267719153

   ID    Z sym.   atoms
    1    6 C      1-7
    2    1 H      8-21
########################################################################
[WARNING] Please study the warnings concerning your input carefully
-1- prog_main_parseArguments: the use of '-gfn' is discouraged, please use '--gfn' next time
########################################################################

           -------------------------------------------------
          |                 G F N 2 - x T B                 |
           -------------------------------------------------

        Reference                      10.1021/acs.jctc.8b01176
      * Hamiltonian:
        H0-scaling (s, p, d)           1.850000    2.230000    2.230000
        zeta-weighting                 0.500000
      * Dispersion:
        s8                             2.700000
        a1                             0.520000
        a2                             5.000000
        s9                             5.000000
      * Repulsion:
        kExp                           1.500000    1.000000
        rExp                           1.000000
      * Coulomb:
        alpha                          2.000000
        third order                    shell-resolved
        anisotropic                    true
        a3                             3.000000
        a5                             4.000000
        cn-shift                       1.200000
        cn-exp                         4.000000
        max-rad                        5.000000

q/qsh data taken from xtbrestart
CAMM data taken from xtbrestart

          ...................................................
          :                      SETUP                      :
          :.................................................:
          :  # basis functions                  42          :
          :  # atomic orbitals                  42          :
          :  # shells                           28          :
          :  # electrons                        42          :
          :  max. iterations                   250          :
          :  Hamiltonian                  GFN2-xTB          :
          :  restarted?                       true          :
          :  GBSA solvation                  false          :
          :  PC potential                    false          :
          :  electronic temp.          300.0000000     K    :
          :  accuracy                    1.0000000          :
          :  -> integral cutoff          0.2500000E+02      :
          :  -> integral neglect         0.1000000E-07      :
          :  -> SCF convergence          0.1000000E-05 Eh   :
          :  -> wf. convergence          0.1000000E-03 e    :
          :  Broyden damping             0.4000000          :
          ...................................................

 iter      E             dE          RMSdq      gap      omega  full diag
   1    -22.4704661 -0.224705E+02  0.220E+00   12.85       0.0  T
   2    -22.4711546 -0.688462E-03  0.130E+00   12.84       1.0  T
   3    -22.4714104 -0.255803E-03  0.101E-01   12.80       1.0  T
   4    -22.4714203 -0.986052E-05  0.541E-02   12.81       1.0  T
   5    -22.4714214 -0.110964E-05  0.104E-02   12.81       2.1  T
   6    -22.4714221 -0.720844E-06  0.242E-03   12.81       9.0  T
   7    -22.4714221 -0.579000E-08  0.556E-04   12.81      39.3  T
   8    -22.4714221 -0.795247E-09  0.115E-04   12.81     190.6  T

   *** convergence criteria satisfied after 8 iterations ***

         #    Occupation            Energy/Eh            Energy/eV
      -------------------------------------------------------------
         1        2.0000           -0.6298371             -17.1387
       ...           ...                  ...                  ...
        15        2.0000           -0.4550752             -12.3832
        16        2.0000           -0.4439073             -12.0793
        17        2.0000           -0.4320431             -11.7565
        18        2.0000           -0.4255496             -11.5798
        19        2.0000           -0.4143787             -11.2758
        20        2.0000           -0.4074507             -11.0873
        21        2.0000           -0.4066899             -11.0666 (HOMO)
        22                          0.0640815               1.7437 (LUMO)
        23                          0.0859463               2.3387
        24                          0.0914191               2.4876
        25                          0.1103327               3.0023
        26                          0.1141440               3.1060
       ...                                ...                  ...
        42                          0.3213427               8.7442
      -------------------------------------------------------------
                  HL-Gap            0.4707714 Eh           12.8103 eV
             Fermi-level           -0.1713042 Eh           -4.6614 eV

 SCC (total)                   0 d,  0 h,  0 min,  0.009 sec
 SCC setup                      ...        0 min,  0.000 sec (  1.002%)
 Dispersion                     ...        0 min,  0.000 sec (  1.068%)
 classical contributions        ...        0 min,  0.000 sec (  0.331%)
 integral evaluation            ...        0 min,  0.001 sec (  6.930%)
 iterations                     ...        0 min,  0.006 sec ( 72.384%)
 molecular gradient             ...        0 min,  0.001 sec ( 16.867%)
 printout                       ...        0 min,  0.000 sec (  1.341%)

         :::::::::::::::::::::::::::::::::::::::::::::::::::::
         ::                     SUMMARY                     ::
         :::::::::::::::::::::::::::::::::::::::::::::::::::::
         :: total energy             -22.148636669192 Eh    ::
         :: gradient norm              0.024943426135 Eh/a0 ::
         :: HOMO-LUMO gap             12.810341628574 eV    ::
         ::.................................................::
         :: SCC energy               -22.471422096005 Eh    ::
         :: -> isotropic ES            0.003309718083 Eh    ::
         :: -> anisotropic ES          0.006378793757 Eh    ::
         :: -> anisotropic XC          0.012667754010 Eh    ::
         :: -> dispersion             -0.014041522848 Eh    ::
         :: repulsion energy           0.322725352946 Eh    ::
         :: add. restraining           0.000000000000 Eh    ::
         :: total charge              -0.000000000000 e     ::
         :::::::::::::::::::::::::::::::::::::::::::::::::::::

           -------------------------------------------------
          |                Property Printout                |
           -------------------------------------------------

    * Orbital Energies and Occupations

         #    Occupation            Energy/Eh            Energy/eV
      -------------------------------------------------------------
         1        2.0000           -0.6298371             -17.1387
       ...           ...                  ...                  ...
         9        2.0000           -0.5010351             -13.6339
        10        2.0000           -0.4946487             -13.4601
        11        2.0000           -0.4896153             -13.3231
        12        2.0000           -0.4837407             -13.1633
        13        2.0000           -0.4639812             -12.6256
        14        2.0000           -0.4611822             -12.5494
        15        2.0000           -0.4550752             -12.3832
        16        2.0000           -0.4439073             -12.0793
        17        2.0000           -0.4320431             -11.7565
        18        2.0000           -0.4255496             -11.5798
        19        2.0000           -0.4143787             -11.2758
        20        2.0000           -0.4074507             -11.0873
        21        2.0000           -0.4066899             -11.0666 (HOMO)
        22                          0.0640815               1.7437 (LUMO)
        23                          0.0859463               2.3387
        24                          0.0914191               2.4876
        25                          0.1103327               3.0023
        26                          0.1141440               3.1060
        27                          0.1143112               3.1106
        28                          0.1368904               3.7250
        29                          0.1601168               4.3570
        30                          0.1707248               4.6457
        31                          0.1842185               5.0128
        32                          0.1848968               5.0313
       ...                                ...                  ...
        42                          0.3213427               8.7442
      -------------------------------------------------------------
                  HL-Gap            0.4707714 Eh           12.8103 eV
             Fermi-level           -0.1713042 Eh           -4.6614 eV

     #   Z          covCN         q      C6AA      α(0)
     1   6 C        3.852    -0.013    20.768     6.482
     2   6 C        3.806    -0.057    21.590     6.615
     3   6 C        3.806    -0.057    21.590     6.615
     4   6 C        3.804    -0.053    21.515     6.604
     5   6 C        3.804    -0.053    21.515     6.604
     6   6 C        3.804    -0.053    21.528     6.605
     7   6 C        3.751    -0.106    22.597     6.779
     8   1 H        0.923     0.027     2.635     2.538
     9   1 H        0.923     0.029     2.603     2.523
    10   1 H        0.924     0.025     2.658     2.549
    11   1 H        0.924     0.025     2.657     2.549
    12   1 H        0.923     0.029     2.603     2.523
    13   1 H        0.924     0.025     2.656     2.548
    14   1 H        0.924     0.027     2.625     2.534
    15   1 H        0.924     0.027     2.625     2.534
    16   1 H        0.924     0.025     2.656     2.548
    17   1 H        0.924     0.024     2.669     2.555
    18   1 H        0.924     0.029     2.599     2.521
    19   1 H        0.924     0.034     2.533     2.489
    20   1 H        0.924     0.031     2.578     2.511
    21   1 H        0.924     0.034     2.534     2.489

 Mol. C6AA /au·bohr⁶  :       3033.834264
 Mol. C8AA /au·bohr⁸  :      64149.744910
 Mol. α(0) /au        :         81.715366


Wiberg/Mayer (AO) data.
largest (>0.10) Wiberg bond orders for each atom

 ---------------------------------------------------------------------------
     #   Z sym  total        # sym  WBO       # sym  WBO       # sym  WBO
 ---------------------------------------------------------------------------
     1   6 C    3.996 --     7 C    1.002     2 C    0.999     3 C    0.999
                             8 H    0.970
     2   6 C    3.998 --     4 C    1.009     1 C    0.999    10 H    0.977
                             9 H    0.976
     3   6 C    3.998 --     5 C    1.009     1 C    0.999    11 H    0.977
                            12 H    0.976
     4   6 C    3.998 --     6 C    1.009     2 C    1.009    13 H    0.977
                            14 H    0.977
     5   6 C    3.998 --     6 C    1.009     3 C    1.009    16 H    0.977
                            15 H    0.977
     6   6 C    3.998 --     4 C    1.009     5 C    1.009    17 H    0.977
                            18 H    0.977
     7   6 C    3.995 --     1 C    1.002    20 H    0.990    21 H    0.987
                            19 H    0.987
     8   1 H    0.999 --     1 C    0.970
     9   1 H    0.999 --     2 C    0.976
    10   1 H    0.999 --     2 C    0.977
    11   1 H    0.999 --     3 C    0.977
    12   1 H    0.999 --     3 C    0.976
    13   1 H    0.999 --     4 C    0.977
    14   1 H    0.999 --     4 C    0.977
    15   1 H    0.999 --     5 C    0.977
    16   1 H    0.999 --     5 C    0.977
    17   1 H    0.999 --     6 C    0.977
    18   1 H    0.999 --     6 C    0.977
    19   1 H    0.999 --     7 C    0.987
    20   1 H    0.999 --     7 C    0.990
    21   1 H    0.999 --     7 C    0.987
 ---------------------------------------------------------------------------

Topologies differ in total number of bonds
Writing topology from bond orders to xtbtopo.mol

molecular dipole:
                 x           y           z       tot (Debye)
 q only:        0.004       0.000       0.012
   full:        0.009       0.000       0.014       0.041
molecular quadrupole (traceless):
                xx          xy          yy          xz          yz          zz
 q only:        0.182      -0.000      -0.011       0.074      -0.000      -0.171
  q+dip:       -1.045      -0.000      -0.397      -0.012       0.000       1.442
   full:       -0.410      -0.000      -0.229       0.044       0.000       0.638


           -------------------------------------------------
          | TOTAL ENERGY              -22.148636669192 Eh   |
          | GRADIENT NORM               0.024943426135 Eh/α |
          | HOMO-LUMO GAP              12.810341628574 eV   |
           -------------------------------------------------

------------------------------------------------------------------------
 * finished run on 2021/08/09 at 17:30:49.903     
------------------------------------------------------------------------
 total:
 * wall-time:     0 d,  0 h,  0 min,  0.019 sec
 *  cpu-time:     0 d,  0 h,  0 min,  0.066 sec
 * ratio c/w:     3.503 speedup
 SCF:
 * wall-time:     0 d,  0 h,  0 min,  0.009 sec
 *  cpu-time:     0 d,  0 h,  0 min,  0.030 sec
 * ratio c/w:     3.323 speedup

