
    -----------------------------------------------------------------------
          Psi4: An Open-Source Ab Initio Electronic Structure Package
                               Psi4 1.3.2 release

                         Git: Rev {} zzzzzzz 


    R. M. Parrish, L. A. Burns, D. G. A. Smith, A. C. Simmonett,
    A. E. DePrince III, E. G. Hohenstein, U. Bozkaya, A. Yu. Sokolov,
    R. Di Remigio, R. M. Richard, J. F. Gonthier, A. M. James,
    H. R. McAlexander, A. Kumar, M. Saitow, X. Wang, B. P. Pritchard,
    P. Verma, H. F. Schaefer III, K. Patkowski, R. A. King, E. F. Valeev,
    F. A. Evangelista, J. M. Turney, T. D. Crawford, and C. D. Sherrill,
    J. Chem. Theory Comput. 13(7) pp 3185--3197 (2017).
    (doi: 10.1021/acs.jctc.7b00174)


                         Additional Contributions by
    P. Kraus, H. Kruse, M. H. Lechner, M. C. Schieber, R. A. Shaw,
    A. Alenaizan, R. Galvelis, Z. L. Glick, S. Lehtola, and J. P. Misiewicz

    -----------------------------------------------------------------------


    Psi4 started on: Tuesday, 18 January 2022 09:26PM

    Process ID: 813096
    Host:       lenovo
    PSIDATADIR: /usr/share/psi4
    Memory:     500.0 MiB
    Threads:    4
    
  ==> Input File <==

--------------------------------------------------------------------------
memory 8 gb

molecule {
0 1
 C         -0.9640429411       -0.0297123223       -0.3436080720
 C         -0.3228885835        1.3115921127        0.0471203850
 C         -0.2750308466       -1.1633006992        0.4142935280
 C          1.1624121560        1.1597825433        0.3970332832
 C          1.1835513177       -1.3112596719       -0.0356766861
 C          1.7910352795        0.0417204134       -0.4263085728
 C         -2.4654730997       -0.0105775914       -0.0722169089
 H         -0.8142035248       -0.1997298515       -1.4151397719
 H         -0.8523645904        1.7298587988        0.9058744857
 H         -0.4377434992        2.0153007624       -0.7799025018
 H         -0.8076095211       -2.1019227402        0.2494581018
 H         -0.3196401028       -0.9466952597        1.4834891044
 H          1.2773202948        0.9230131366        1.4564763107
 H          1.6827076842        2.1019389513        0.2146035695
 H          1.2404652394       -1.9901349599       -0.8888914390
 H          1.7636692401       -1.7575671349        0.7744866074
 H          1.6138230170        0.2419932735       -1.4847844294
 H          2.8716608262        0.0208832462       -0.2738184456
 H         -2.6586143973        0.0926005099        0.9939024797
 H         -2.9352769873        0.8238140747       -0.5887885570
 H         -2.9298436261       -0.9324361570       -0.4162188960
}

set basis def2-tzvp
optimize('pbe0')
--------------------------------------------------------------------------

  Memory set to   7.451 GiB by Python driver.
gradient() will perform analytic gradient computation.

*** tstart() called on lenovo
*** at Tue Jan 18 21:26:31 2022

   => Loading Basis Set <=

    Name: DEF2-TZVP
    Role: ORBITAL
    Keyword: BASIS
    atoms 1-7  entry C          line   123 file /usr/share/psi4/basis/def2-tzvp.gbs 
    atoms 8-21 entry H          line    15 file /usr/share/psi4/basis/def2-tzvp.gbs 


         ---------------------------------------------------------
                                   SCF
               by Justin Turney, Rob Parrish, Andy Simmonett
                          and Daniel G. A. Smith
                              RKS Reference
                        4 Threads,   7629 MiB Core
         ---------------------------------------------------------

  ==> Geometry <==

    Molecular point group: c1
    Full point group: C1

    Geometry (in Angstrom), charge = 0, multiplicity = 1:

       Center              X                  Y                   Z               Mass       
    ------------   -----------------  -----------------  -----------------  -----------------
         C           -0.964031654608    -0.029712503107    -0.343610066658    12.000000000000
         C           -0.322877297008     1.311591931893     0.047118390342    12.000000000000
         C           -0.275019560108    -1.163300880007     0.414291533342    12.000000000000
         C            1.162423442492     1.159782362493     0.397031288542    12.000000000000
         C            1.183562604192    -1.311259852707    -0.035678680758    12.000000000000
         C            1.791046565992     0.041720232593    -0.426310567458    12.000000000000
         C           -2.465461813208    -0.010577772207    -0.072218903558    12.000000000000
         H           -0.814192238308    -0.199730032307    -1.415141766558     1.007825032230
         H           -0.852353303908     1.729858617993     0.905872491042     1.007825032230
         H           -0.437732212708     2.015300581593    -0.779904496458     1.007825032230
         H           -0.807598234608    -2.101922921007     0.249456107142     1.007825032230
         H           -0.319628816308    -0.946695440507     1.483487109742     1.007825032230
         H            1.277331581292     0.923012955793     1.456474316042     1.007825032230
         H            1.682718970692     2.101938770493     0.214601574842     1.007825032230
         H            1.240476525892    -1.990135140707    -0.888893433658     1.007825032230
         H            1.763680526592    -1.757567315707     0.774484612742     1.007825032230
         H            1.613834303492     0.241993092693    -1.484786424058     1.007825032230
         H            2.871672112692     0.020883065393    -0.273820440258     1.007825032230
         H           -2.658603110808     0.092600329093     0.993900485042     1.007825032230
         H           -2.935265700808     0.823813893893    -0.588790551658     1.007825032230
         H           -2.929832339608    -0.932436337807    -0.416220890658     1.007825032230

  Running in c1 symmetry.

  Rotational constants: A =      0.13936  B =      0.07474  C =      0.05528 [cm^-1]
  Rotational constants: A =   4177.87857  B =   2240.66366  C =   1657.20648 [MHz]
  Nuclear repulsion =  330.988969095753475

  Charge       = 0
  Multiplicity = 1
  Electrons    = 56
  Nalpha       = 28
  Nbeta        = 28

  ==> Algorithm <==

  SCF Algorithm Type is DF.
  DIIS enabled.
  MOM disabled.
  Fractional occupation disabled.
  Guess Type is SAD.
  Energy threshold   = 1.00e-08
  Density threshold  = 1.00e-08
  Integral threshold = 0.00e+00

  ==> Primary Basis <==

  Basis Set: DEF2-TZVP
    Blend: DEF2-TZVP
    Number of shells: 133
    Number of basis function: 301
    Number of Cartesian functions: 336
    Spherical Harmonics?: true
    Max angular momentum: 3

  ==> DFT Potential <==

   => Composite Functional: PBE0 <= 

    PBE0 Hyb-GGA Exchange-Correlation Functional

    C. Adamo and V. Barone, J. Chem. Phys. 110, 6158 (1999)
    M. Ernzerhof and G. E. Scuseria, J. Chem. Phys. 110, 5029 (1999)

    Deriv               =              1
    GGA                 =           TRUE
    Meta                =          FALSE

    Exchange Hybrid     =           TRUE
    MP2 Hybrid          =          FALSE

   => Exchange Functionals <=

    0.7500   Perdew, Burke & Ernzerhof

   => Exact (HF) Exchange <=

    0.2500               HF 

   => Correlation Functionals <=

    1.0000   Perdew, Burke & Ernzerhof

   => Molecular Quadrature <=

    Radial Scheme          =       TREUTLER
    Pruning Scheme         =           FLAT
    Nuclear Scheme         =       TREUTLER

    BS radius alpha        =              1
    Pruning alpha          =              1
    Radial Points          =             75
    Spherical Points       =            302
    Total Points           =         472038
    Total Blocks           =           3481
    Max Points             =            256
    Max Functions          =            291

   => Loading Basis Set <=

    Name: (DEF2-TZVP AUX)
    Role: JKFIT
    Keyword: DF_BASIS_SCF
    atoms 1-7  entry C          line   203 file /usr/share/psi4/basis/def2-tzvp-jkfit.gbs 
    atoms 8-21 entry H          line    23 file /usr/share/psi4/basis/def2-tzvp-jkfit.gbs 

  ==> Pre-Iterations <==

   -------------------------------------------------------
    Irrep   Nso     Nmo     Nalpha   Nbeta   Ndocc  Nsocc
   -------------------------------------------------------
     A        301     301       0       0       0       0
   -------------------------------------------------------
    Total     301     301      28      28      28       0
   -------------------------------------------------------

  ==> Integral Setup <==

  DFHelper Memory: AOs need 0.534 GiB; user supplied 2.611 GiB. Using in-core AOs.

  ==> MemDFJK: Density-Fitted J/K Matrices <==

    J tasked:                   Yes
    K tasked:                   Yes
    wK tasked:                   No
    OpenMP threads:               4
    Memory [MiB]:              2674
    Algorithm:                 Core
    Schwarz Cutoff:           1E-12
    Mask sparsity (%):       2.9492
    Fitting Condition:        1E-10

   => Auxiliary Basis Set <=

  Basis Set: (DEF2-TZVP AUX)
    Blend: DEF2-TZVP-JKFIT
    Number of shells: 259
    Number of basis function: 777
    Number of Cartesian functions: 903
    Spherical Harmonics?: true
    Max angular momentum: 4

  Cached 100.0% of DFT collocation blocks in 2.976 [GiB].

  Minimum eigenvalue in the overlap matrix is 4.1472746642E-05.
  Using Symmetric Orthogonalization.

  SCF Guess: Superposition of Atomic Densities via on-the-fly atomic UHF.

  ==> Iterations <==

                           Total Energy        Delta E     RMS |[F,P]|

   @DF-RKS iter SAD:  -274.60621722749585   -2.74606e+02   0.00000e+00 
   @DF-RKS iter   1:  -274.14300583748354    4.63211e-01   4.09444e-03 DIIS
   @DF-RKS iter   2:  -273.38480054561944    7.58205e-01   5.66546e-03 DIIS
   @DF-RKS iter   3:  -274.92182878030303   -1.53703e+00   5.91078e-04 DIIS
   @DF-RKS iter   4:  -274.93361312944097   -1.17843e-02   2.75555e-04 DIIS
   @DF-RKS iter   5:  -274.93670897944446   -3.09585e-03   5.30712e-05 DIIS
   @DF-RKS iter   6:  -274.93682502053218   -1.16041e-04   7.70188e-06 DIIS
   @DF-RKS iter   7:  -274.93682760613405   -2.58560e-06   2.41173e-06 DIIS
   @DF-RKS iter   8:  -274.93682784426619   -2.38132e-07   6.75983e-07 DIIS
   @DF-RKS iter   9:  -274.93682786225190   -1.79857e-08   1.66334e-07 DIIS
   @DF-RKS iter  10:  -274.93682786346892   -1.21702e-09   4.22360e-08 DIIS
   @DF-RKS iter  11:  -274.93682786355259   -8.36735e-11   7.52234e-09 DIIS
  Energy and wave function converged.


  ==> Post-Iterations <==

    Orbital Energies [Eh]
    ---------------------

    Doubly Occupied:                                                      

       1A    -10.216201     2A    -10.208080     3A    -10.207761  
       4A    -10.207498     5A    -10.207003     6A    -10.206318  
       7A    -10.200689     8A     -0.859814     9A     -0.782696  
      10A     -0.756820    11A     -0.690985    12A     -0.627188  
      13A     -0.607790    14A     -0.536704    15A     -0.502439  
      16A     -0.478928    17A     -0.454882    18A     -0.425417  
      19A     -0.418441    20A     -0.392468    21A     -0.379706  
      22A     -0.369742    23A     -0.363660    24A     -0.354333  
      25A     -0.349749    26A     -0.306050    27A     -0.302827  
      28A     -0.300210  

    Virtual:                                                              

      29A      0.040630    30A      0.060545    31A      0.066202  
      32A      0.078766    33A      0.099595    34A      0.103008  
      35A      0.113467    36A      0.116546    37A      0.124627  
      38A      0.134956    39A      0.141862    40A      0.146122  
      41A      0.148851    42A      0.166449    43A      0.182285  
      44A      0.185646    45A      0.205033    46A      0.208603  
      47A      0.223875    48A      0.230561    49A      0.241072  
      50A      0.244137    51A      0.256124    52A      0.267905  
      53A      0.272411    54A      0.290160    55A      0.301614  
      56A      0.319877    57A      0.327958    58A      0.341034  
      59A      0.361827    60A      0.394764    61A      0.402838  
      62A      0.413126    63A      0.417578    64A      0.420283  
      65A      0.421805    66A      0.432033    67A      0.439836  
      68A      0.447196    69A      0.456563    70A      0.457394  
      71A      0.465602    72A      0.472075    73A      0.475873  
      74A      0.484672    75A      0.490692    76A      0.495906  
      77A      0.499345    78A      0.508564    79A      0.514119  
      80A      0.523535    81A      0.540865    82A      0.541644  
      83A      0.579031    84A      0.594440    85A      0.627203  
      86A      0.638658    87A      0.672322    88A      0.687230  
      89A      0.703593    90A      0.714947    91A      0.794630  
      92A      0.802876    93A      0.814082    94A      0.830526  
      95A      0.839516    96A      0.859481    97A      0.877349  
      98A      0.896095    99A      0.913215   100A      0.918453  
     101A      0.964136   102A      0.968124   103A      0.986895  
     104A      1.012760   105A      1.016889   106A      1.024841  
     107A      1.053114   108A      1.066541   109A      1.078559  
     110A      1.090050   111A      1.139530   112A      1.146990  
     113A      1.150533   114A      1.185045   115A      1.196688  
     116A      1.210642   117A      1.216410   118A      1.239640  
     119A      1.258002   120A      1.274828   121A      1.286416  
     122A      1.302049   123A      1.338725   124A      1.372080  
     125A      1.442780   126A      1.456848   127A      1.484481  
     128A      1.525688   129A      1.542694   130A      1.564151  
     131A      1.579486   132A      1.586697   133A      1.604604  
     134A      1.625919   135A      1.634663   136A      1.639479  
     137A      1.643532   138A      1.658526   139A      1.667094  
     140A      1.676673   141A      1.691970   142A      1.711919  
     143A      1.744825   144A      1.760239   145A      1.774299  
     146A      1.781682   147A      1.818821   148A      1.839916  
     149A      1.859351   150A      1.882975   151A      1.897466  
     152A      1.902954   153A      1.918414   154A      1.955085  
     155A      1.983991   156A      1.995349   157A      2.011979  
     158A      2.038742   159A      2.052778   160A      2.096841  
     161A      2.111919   162A      2.124180   163A      2.149576  
     164A      2.168181   165A      2.186947   166A      2.199453  
     167A      2.267534   168A      2.301473   169A      2.318635  
     170A      2.342974   171A      2.349724   172A      2.357682  
     173A      2.383789   174A      2.411116   175A      2.420292  
     176A      2.463077   177A      2.470710   178A      2.483530  
     179A      2.495996   180A      2.509372   181A      2.551081  
     182A      2.557170   183A      2.573958   184A      2.590432  
     185A      2.615864   186A      2.620981   187A      2.629044  
     188A      2.636501   189A      2.638393   190A      2.653772  
     191A      2.672912   192A      2.678681   193A      2.691116  
     194A      2.706014   195A      2.719376   196A      2.734147  
     197A      2.746643   198A      2.765615   199A      2.793663  
     200A      2.799439   201A      2.810999   202A      2.827703  
     203A      2.842344   204A      2.857549   205A      2.879481  
     206A      2.886793   207A      2.942661   208A      2.949232  
     209A      2.984490   210A      3.007138   211A      3.038797  
     212A      3.087453   213A      3.094848   214A      3.112242  
     215A      3.123567   216A      3.156609   217A      3.171247  
     218A      3.174695   219A      3.192544   220A      3.204298  
     221A      3.212961   222A      3.243458   223A      3.254459  
     224A      3.262772   225A      3.300461   226A      3.306414  
     227A      3.330616   228A      3.346735   229A      3.348807  
     230A      3.365599   231A      3.381835   232A      3.393869  
     233A      3.403829   234A      3.436219   235A      3.453136  
     236A      3.466501   237A      3.476319   238A      3.499301  
     239A      3.530671   240A      3.538731   241A      3.555392  
     242A      3.562846   243A      3.579115   244A      3.603805  
     245A      3.635209   246A      3.639661   247A      3.661325  
     248A      3.695541   249A      3.715498   250A      3.741596  
     251A      3.763290   252A      3.772378   253A      3.802591  
     254A      3.844748   255A      3.883862   256A      3.900569  
     257A      3.934309   258A      3.944117   259A      3.983708  
     260A      4.003329   261A      4.018673   262A      4.022505  
     263A      4.071388   264A      4.087915   265A      4.090524  
     266A      4.122193   267A      4.164678   268A      4.176849  
     269A      4.191720   270A      4.208019   271A      4.260612  
     272A      4.303704   273A      4.361614   274A      4.395328  
     275A      4.418169   276A      4.439053   277A      4.495425  
     278A      4.510174   279A      4.551019   280A      4.593600  
     281A      4.606874   282A      4.646800   283A      4.669973  
     284A      4.680712   285A      4.739297   286A      4.791673  
     287A      4.849582   288A      4.872800   289A      4.939748  
     290A      4.963239   291A      4.993074   292A      5.045046  
     293A      5.087664   294A      5.155530   295A     22.459771  
     296A     22.497625   297A     22.515324   298A     22.617434  
     299A     22.651809   300A     22.696388   301A     22.798593  

    Final Occupation by Irrep:
              A 
    DOCC [    28 ]

  @DF-RKS Final Energy:  -274.93682786355259

   => Energetics <=

    Nuclear Repulsion Energy =            330.9889690957534754
    One-Electron Energy =               -1025.0859682012383018
    Two-Electron Energy =                 451.8361264379250883
    DFT Exchange-Correlation Energy =     -32.6759551959927990
    Empirical Dispersion Energy =           0.0000000000000000
    VV10 Nonlocal Energy =                  0.0000000000000000
    Total Energy =                       -274.9368278635525940

Computation Completed


Properties will be evaluated at   0.000000,   0.000000,   0.000000 [a0]

Properties computed using the SCF density matrix

  Nuclear Dipole Moment: [e a0]
     X:    -1.2239      Y:     0.0196      Z:     0.2163

  Electronic Dipole Moment: [e a0]
     X:     1.2624      Y:    -0.0213      Z:    -0.2477

  Dipole Moment: [e a0]
     X:     0.0385      Y:    -0.0017      Z:    -0.0314     Total:     0.0497

  Dipole Moment: [D]
     X:     0.0979      Y:    -0.0043      Z:    -0.0798     Total:     0.1264


*** tstop() called on lenovo at Tue Jan 18 21:27:11 2022
Module time:
	user time   =     138.37 seconds =       2.31 minutes
	system time =       2.35 seconds =       0.04 minutes
	total time  =         40 seconds =       0.67 minutes
Total time:
	user time   =     138.37 seconds =       2.31 minutes
	system time =       2.35 seconds =       0.04 minutes
	total time  =         40 seconds =       0.67 minutes

*** tstart() called on lenovo
*** at Tue Jan 18 21:27:11 2022


         ------------------------------------------------------------
                                   SCF GRAD                          
                          Rob Parrish, Justin Turney,                
                       Andy Simmonett, and Alex Sokolov              
         ------------------------------------------------------------

  ==> Geometry <==

    Molecular point group: c1
    Full point group: C1

    Geometry (in Angstrom), charge = 0, multiplicity = 1:

       Center              X                  Y                   Z               Mass       
    ------------   -----------------  -----------------  -----------------  -----------------
         C           -0.964031654608    -0.029712503107    -0.343610066658    12.000000000000
         C           -0.322877297008     1.311591931893     0.047118390342    12.000000000000
         C           -0.275019560108    -1.163300880007     0.414291533342    12.000000000000
         C            1.162423442492     1.159782362493     0.397031288542    12.000000000000
         C            1.183562604192    -1.311259852707    -0.035678680758    12.000000000000
         C            1.791046565992     0.041720232593    -0.426310567458    12.000000000000
         C           -2.465461813208    -0.010577772207    -0.072218903558    12.000000000000
         H           -0.814192238308    -0.199730032307    -1.415141766558     1.007825032230
         H           -0.852353303908     1.729858617993     0.905872491042     1.007825032230
         H           -0.437732212708     2.015300581593    -0.779904496458     1.007825032230
         H           -0.807598234608    -2.101922921007     0.249456107142     1.007825032230
         H           -0.319628816308    -0.946695440507     1.483487109742     1.007825032230
         H            1.277331581292     0.923012955793     1.456474316042     1.007825032230
         H            1.682718970692     2.101938770493     0.214601574842     1.007825032230
         H            1.240476525892    -1.990135140707    -0.888893433658     1.007825032230
         H            1.763680526592    -1.757567315707     0.774484612742     1.007825032230
         H            1.613834303492     0.241993092693    -1.484786424058     1.007825032230
         H            2.871672112692     0.020883065393    -0.273820440258     1.007825032230
         H           -2.658603110808     0.092600329093     0.993900485042     1.007825032230
         H           -2.935265700808     0.823813893893    -0.588790551658     1.007825032230
         H           -2.929832339608    -0.932436337807    -0.416220890658     1.007825032230

  Nuclear repulsion =  330.988969095753475

  ==> Basis Set <==

  Basis Set: DEF2-TZVP
    Blend: DEF2-TZVP
    Number of shells: 133
    Number of basis function: 301
    Number of Cartesian functions: 336
    Spherical Harmonics?: true
    Max angular momentum: 3

  ==> DFJKGrad: Density-Fitted SCF Gradients <==

    Gradient:                    1
    J tasked:                  Yes
    K tasked:                  Yes
    wK tasked:                  No
    OpenMP threads:              4
    Integrals threads:           4
    Memory [MiB]:             5722
    Schwarz Cutoff:          0E+00
    Fitting Condition:       1E-10

   => Auxiliary Basis Set <=

  Basis Set: (DEF2-TZVP AUX)
    Blend: DEF2-TZVP-JKFIT
    Number of shells: 259
    Number of basis function: 777
    Number of Cartesian functions: 903
    Spherical Harmonics?: true
    Max angular momentum: 4

  ==> DFT Potential <==

   => Composite Functional: PBE0 <= 

    PBE0 Hyb-GGA Exchange-Correlation Functional

    C. Adamo and V. Barone, J. Chem. Phys. 110, 6158 (1999)
    M. Ernzerhof and G. E. Scuseria, J. Chem. Phys. 110, 5029 (1999)

    Deriv               =              1
    GGA                 =           TRUE
    Meta                =          FALSE

    Exchange Hybrid     =           TRUE
    MP2 Hybrid          =          FALSE

   => Exchange Functionals <=

    0.7500   Perdew, Burke & Ernzerhof

   => Exact (HF) Exchange <=

    0.2500               HF 

   => Correlation Functionals <=

    1.0000   Perdew, Burke & Ernzerhof

   => Molecular Quadrature <=

    Radial Scheme          =       TREUTLER
    Pruning Scheme         =           FLAT
    Nuclear Scheme         =       TREUTLER

    BS radius alpha        =              1
    Pruning alpha          =              1
    Radial Points          =             75
    Spherical Points       =            302
    Total Points           =         472038
    Total Blocks           =           3481
    Max Points             =            256
    Max Functions          =            291


  -Total Gradient:
     Atom            X                  Y                   Z
    ------   -----------------  -----------------  -----------------
       1        0.005769428849     0.000403438578    -0.009080079663
       2       -0.004191554440     0.004842787706     0.000961407672
       3       -0.001931437185    -0.001384030987     0.008452277318
       4        0.000155151410    -0.000010041226     0.006582867012
       5        0.001854381027    -0.003128834214    -0.000302798494
       6        0.000501091380    -0.000101019311    -0.006188893029
       7       -0.007759670222     0.000666835047     0.004913591158
       8       -0.000524263989     0.000071174275     0.000983894036
       9        0.002098140223    -0.001380012950    -0.000534427934
      10        0.000950256067    -0.002040656239     0.000356161396
      11        0.001321948620     0.001261551552    -0.001789217323
      12        0.001219002633     0.000314184870    -0.002519928358
      13       -0.000832268746    -0.000855005798    -0.002204395827
      14       -0.000977220551    -0.001096318014    -0.002030810708
      15       -0.000560035560     0.002042917510     0.000061764992
      16       -0.001540110870     0.001558738635     0.000042037176
      17       -0.001099732474    -0.000357808571     0.002158131702
      18       -0.001341795055    -0.000152389084     0.001958797953
      19        0.001053247066    -0.000584547040    -0.003346953151
      20        0.003047129172    -0.002490900328     0.000871621887
      21        0.002783116594     0.002411541615     0.000649554211


*** tstop() called on lenovo at Tue Jan 18 21:27:26 2022
Module time:
	user time   =      53.06 seconds =       0.88 minutes
	system time =       0.68 seconds =       0.01 minutes
	total time  =         15 seconds =       0.25 minutes
Total time:
	user time   =     191.43 seconds =       3.19 minutes
	system time =       3.03 seconds =       0.05 minutes
	total time  =         55 seconds =       0.92 minutes

			-----------------------------------------
			 OPTKING 2.0: for geometry optimizations 
			  - R.A. King,  Bethel University        
			-----------------------------------------

	Internal coordinates to be generated automatically.
	Detected frag 1 with atoms:  1 2 3 4 5 6 7 8 9 10 11 12 13 14 15 16 17 18 19 20
	 21
	---Fragment 1 Bond Connectivity---
	 1 : 2 3 7 8
	 2 : 1 4 9 10
	 3 : 1 5 11 12
	 4 : 2 6 13 14
	 5 : 3 6 15 16
	 6 : 4 5 17 18
	 7 : 1 19 20 21
	 8 : 1
	 9 : 2
	 10 : 2
	 11 : 3
	 12 : 3
	 13 : 4
	 14 : 4
	 15 : 5
	 16 : 5
	 17 : 6
	 18 : 6
	 19 : 7
	 20 : 7
	 21 : 7

	---Fragment 1 Geometry and Gradient---
	 C          -1.8217558035       -0.0561484934       -0.6493289199
	 C          -0.6101496635        2.4785495396        0.0890408532
	 C          -0.5197116477       -2.1983200647        0.7828975341
	 C           2.1966619481        2.1916710302        0.7502803986
	 C           2.2366091743       -2.4779220009       -0.0674229352
	 C           3.3845874877        0.0788398135       -0.8056102169
	 C          -4.6590475997       -0.0199890925       -0.1364739488
	 H          -1.5386003439       -0.3774350601       -2.6742303675
	 H          -1.6107143065        3.2689590238        1.7118509127
	 H          -0.8271939983        3.8083661597       -1.4738059023
	 H          -1.5261394828       -3.9720586575        0.4714037228
	 H          -0.6040109246       -1.7889951068        2.8033843481
	 H           2.4138068600        1.7442416967        2.7523375661
	 H           3.1798780007        3.9720886087        0.4055382025
	 H           2.3441608990       -3.7608103686       -1.6797651443
	 H           3.3328731681       -3.3213208737        1.4635638065
	 H           3.0497048455        0.4573006694       -2.8058396963
	 H           5.4266738151        0.0394632743       -0.5174456396
	 H          -5.0240317557        0.1749892611        1.8781997127
	 H          -5.5468482800        1.5567826378       -1.1126528879
	 H          -5.5365807154       -1.7620493079       -0.7865434910
	             0.0057694288        0.0004034386       -0.0090800797
	            -0.0041915544        0.0048427877        0.0009614077
	            -0.0019314372       -0.0013840310        0.0084522773
	             0.0001551514       -0.0000100412        0.0065828670
	             0.0018543810       -0.0031288342       -0.0003027985
	             0.0005010914       -0.0001010193       -0.0061888930
	            -0.0077596702        0.0006668350        0.0049135912
	            -0.0005242640        0.0000711743        0.0009838940
	             0.0020981402       -0.0013800129       -0.0005344279
	             0.0009502561       -0.0020406562        0.0003561614
	             0.0013219486        0.0012615516       -0.0017892173
	             0.0012190026        0.0003141849       -0.0025199284
	            -0.0008322687       -0.0008550058       -0.0022043958
	            -0.0009772206       -0.0010963180       -0.0020308107
	            -0.0005600356        0.0020429175        0.0000617650
	            -0.0015401109        0.0015587386        0.0000420372
	            -0.0010997325       -0.0003578086        0.0021581317
	            -0.0013417951       -0.0001523891        0.0019587980
	             0.0010532471       -0.0005845470       -0.0033469532
	             0.0030471292       -0.0024909003        0.0008716219
	             0.0027831166        0.0024115416        0.0006495542

	Previous optimization step data not found.  Starting new optimization.

	---Fragment 1 Intrafragment Coordinates---
	 - Coordinate -           - BOHR/RAD -       - ANG/DEG -
	 R(1,2)           =         2.904802	       1.537155
	 R(1,3)           =         2.887125	       1.527801
	 R(1,7)           =         2.883497	       1.525881
	 R(1,8)           =         2.069693	       1.095234
	 R(2,4)           =         2.897883	       1.533494
	 R(2,9)           =         2.063829	       1.092131
	 R(2,10)          =         2.063495	       1.091954
	 R(3,5)           =         2.898021	       1.533567
	 R(3,11)          =         2.063025	       1.091706
	 R(3,12)          =         2.063255	       1.091827
	 R(4,6)           =         2.880281	       1.524179
	 R(4,13)          =         2.062905	       1.091642
	 R(4,14)          =         2.062874	       1.091626
	 R(5,6)           =         2.898242	       1.533684
	 R(5,15)          =         2.063254	       1.091827
	 R(5,16)          =         2.063259	       1.091830
	 R(6,17)          =         2.063079	       1.091735
	 R(6,18)          =         2.062694	       1.091531
	 R(7,19)          =         2.056730	       1.088375
	 R(7,20)          =         2.056046	       1.088013
	 R(7,21)          =         2.056071	       1.088026
	 B(1,2,4)         =         1.955856	     112.062298
	 B(1,2,9)         =         1.909051	     109.380572
	 B(1,2,10)        =         1.902812	     109.023081
	 B(1,3,5)         =         1.933671	     110.791161
	 B(1,3,11)        =         1.920928	     110.061071
	 B(1,3,12)        =         1.896701	     108.672968
	 B(1,7,19)        =         1.928395	     110.488872
	 B(1,7,20)        =         1.928424	     110.490576
	 B(1,7,21)        =         1.931682	     110.677243
	 B(2,1,3)         =         1.910529	     109.465221
	 B(2,1,7)         =         1.932928	     110.748637
	 B(2,1,8)         =         1.904008	     109.091610
	 B(2,4,6)         =         1.927120	     110.415820
	 B(2,4,13)        =         1.922902	     110.174156
	 B(2,4,14)        =         1.915664	     109.759434
	 B(3,1,7)         =         1.944246	     111.397115
	 B(3,1,8)         =         1.884369	     107.966394
	 B(3,5,6)         =         1.945877	     111.490557
	 B(3,5,15)        =         1.916499	     109.807321
	 B(3,5,16)        =         1.903992	     109.090729
	 B(4,2,9)         =         1.905053	     109.151491
	 B(4,2,10)        =         1.916112	     109.785138
	 B(4,6,5)         =         1.924284	     110.253335
	 B(4,6,17)        =         1.898868	     108.797106
	 B(4,6,18)        =         1.925008	     110.294832
	 B(5,3,11)        =         1.914242	     109.678006
	 B(5,3,12)        =         1.923389	     110.202086
	 B(5,6,17)        =         1.922479	     110.149952
	 B(5,6,18)        =         1.917409	     109.859467
	 B(6,4,13)        =         1.898361	     108.768081
	 B(6,4,14)        =         1.924377	     110.258684
	 B(6,5,15)        =         1.905865	     109.197997
	 B(6,5,16)        =         1.916806	     109.824900
	 B(7,1,8)         =         1.886594	     108.093849
	 B(9,2,10)        =         1.873109	     107.321231
	 B(11,3,12)       =         1.873913	     107.367309
	 B(13,4,14)       =         1.874664	     107.410334
	 B(15,5,16)       =         1.873390	     107.337360
	 B(17,6,18)       =         1.875121	     107.436527
	 B(19,7,20)       =         1.892041	     108.405959
	 B(19,7,21)       =         1.890503	     108.317840
	 B(20,7,21)       =         1.891639	     108.382936
	 D(1,2,4,6)       =         0.558909	      32.023152
	 D(1,2,4,13)      =        -1.538372	     -88.142232
	 D(1,2,4,14)      =         2.683936	     153.778193
	 D(1,3,5,6)       =         0.570099	      32.664286
	 D(1,3,5,15)      =        -1.544543	     -88.495779
	 D(1,3,5,16)      =         2.690050	     154.128496
	 D(2,1,3,5)       =        -1.154761	     -66.162913
	 D(2,1,3,11)      =         3.008308	     172.363336
	 D(2,1,3,12)      =         0.960814	      55.050594
	 D(2,1,7,19)      =        -1.119942	     -64.167962
	 D(2,1,7,20)      =         0.973846	      55.797292
	 D(2,1,7,21)      =         3.069265	     175.855930
	 D(2,4,6,5)       =        -1.150257	     -65.904889
	 D(2,4,6,17)      =         0.959750	      54.989651
	 D(2,4,6,18)      =         3.012323	     172.593411
	 D(3,1,2,4)       =         0.541880	      31.047456
	 D(3,1,2,9)       =        -1.573219	     -90.138819
	 D(3,1,2,10)      =         2.666653	     152.787938
	 D(3,1,7,19)      =         1.010834	      57.916506
	 D(3,1,7,20)      =         3.104622	     177.881759
	 D(3,1,7,21)      =        -1.083144	     -62.059602
	 D(3,5,6,4)       =         0.540837	      30.987695
	 D(3,5,6,17)      =        -1.554990	     -89.094339
	 D(3,5,6,18)      =         2.665951	     152.747736
	 D(4,2,1,7)       =         2.692263	     154.255302
	 D(4,2,1,8)       =        -1.516543	     -86.891488
	 D(4,6,5,15)      =         2.661665	     152.502179
	 D(4,6,5,16)      =        -1.571653	     -90.049083
	 D(5,3,1,7)       =         2.984754	     171.013787
	 D(5,3,1,8)       =         0.915892	      52.476756
	 D(5,6,4,13)      =         0.961704	      55.101576
	 D(5,6,4,14)      =         3.013058	     172.635500
	 D(6,4,2,9)       =         2.676312	     153.341368
	 D(6,4,2,10)      =        -1.558224	     -89.279669
	 D(6,5,3,11)      =         2.694146	     154.363184
	 D(6,5,3,12)      =        -1.529651	     -87.642543
	 D(7,1,2,9)       =         0.577163	      33.069027
	 D(7,1,2,10)      =        -1.466150	     -84.004215
	 D(7,1,3,11)      =         0.864637	      49.540036
	 D(7,1,3,12)      =        -1.182857	     -67.772706
	 D(8,1,2,9)       =         2.651543	     151.922237
	 D(8,1,2,10)      =         0.608230	      34.848995
	 D(8,1,3,11)      =        -1.204225	     -68.996995
	 D(8,1,3,12)      =         3.031467	     173.690263
	 D(8,1,7,19)      =         3.078362	     176.377124
	 D(8,1,7,20)      =        -1.111035	     -63.657623
	 D(8,1,7,21)      =         0.984383	      56.401016
	 D(9,2,4,13)      =         0.579030	      33.175984
	 D(9,2,4,14)      =        -1.481847	     -84.903591
	 D(10,2,4,13)     =         2.627680	     150.554947
	 D(10,2,4,14)     =         0.566802	      32.475372
	 D(11,3,5,15)     =         0.579504	      33.203119
	 D(11,3,5,16)     =        -1.469089	     -84.172605
	 D(12,3,5,15)     =         2.638892	     151.197391
	 D(12,3,5,16)     =         0.590299	      33.821667
	 D(13,4,6,17)     =         3.071712	     175.996117
	 D(13,4,6,18)     =        -1.158901	     -66.400123
	 D(14,4,6,17)     =        -1.160120	     -66.469960
	 D(14,4,6,18)     =         0.892453	      51.133800
	 D(15,5,6,17)     =         0.565838	      32.420145
	 D(15,5,6,18)     =        -1.496407	     -85.737780
	 D(16,5,6,17)     =         2.615705	     149.868883
	 D(16,5,6,18)     =         0.553461	      31.710958

	Current energy   :      -274.9368278636

	Generating empirical Hessian (Schlegel '84) for each fragment.
	Taking RFO optimization step.
	Going to follow RFO solution 1.
	Using RFO vector 1.
	Norm of target step-size    0.18835
	Projected energy change by RFO approximation:        -0.0044012394

	Back-transformation to cartesian coordinates...
	Successfully converged to displaced geometry.

	--- Internal Coordinate Step in ANG or DEG, aJ/ANG or AJ/DEG ---
	 ---------------------------------------------------------------------------
	   Coordinate                Previous        Force       Change         New 
	   ----------                --------       ------       ------       ------
	    1 R(1,2)          =      1.537155     0.006655     0.001495     1.538650
	    2 R(1,3)          =      1.527801    -0.009072    -0.002722     1.525078
	    3 R(1,7)          =      1.525881    -0.011633    -0.002496     1.523384
	    4 R(1,8)          =      1.095234     0.008620     0.001612     1.096847
	    5 R(2,4)          =      1.533494     0.010683     0.002721     1.536215
	    6 R(2,9)          =      1.092131     0.016200     0.002999     1.095131
	    7 R(2,10)         =      1.091954     0.013877     0.002568     1.094522
	    8 R(3,5)          =      1.533567     0.012789     0.002944     1.536511
	    9 R(3,11)         =      1.091706     0.012029     0.002224     1.093930
	   10 R(3,12)         =      1.091827     0.020218     0.003740     1.095567
	   11 R(4,6)          =      1.524179    -0.001891    -0.000630     1.523549
	   12 R(4,13)         =      1.091642     0.016827     0.003111     1.094753
	   13 R(4,14)         =      1.091626     0.008831     0.001632     1.093258
	   14 R(5,6)          =      1.533684     0.011375     0.002984     1.536668
	   15 R(5,15)         =      1.091827     0.011103     0.002054     1.093881
	   16 R(5,16)         =      1.091830     0.011734     0.002170     1.094000
	   17 R(6,17)         =      1.091735     0.016303     0.003014     1.094749
	   18 R(6,18)         =      1.091531     0.008667     0.001601     1.093132
	   19 R(7,19)         =      1.088375     0.028992     0.005302     1.093676
	   20 R(7,20)         =      1.088013     0.029985     0.005477     1.093489
	   21 R(7,21)         =      1.088026     0.028328     0.005174     1.093200
	   22 B(1,2,4)        =    112.062298     0.000116     1.056189   113.118487
	   23 B(1,2,9)        =    109.380572    -0.000081    -0.431676   108.948896
	   24 B(1,2,10)       =    109.023081     0.000000    -0.010442   109.012639
	   25 B(1,3,5)        =    110.791161     0.000076     0.697647   111.488808
	   26 B(1,3,11)       =    110.061071    -0.000006     0.329828   110.390900
	   27 B(1,3,12)       =    108.672968    -0.000041    -0.488467   108.184500
	   28 B(1,7,19)       =    110.488872    -0.000015    -0.167876   110.320996
	   29 B(1,7,20)       =    110.490576     0.000155     0.738211   111.228788
	   30 B(1,7,21)       =    110.677243     0.000132     0.695500   111.372743
	   31 B(2,1,3)        =    109.465221    -0.000055     0.362198   109.827419
	   32 B(2,1,7)        =    110.748637     0.000074     0.764892   111.513528
	   33 B(2,1,8)        =    109.091610    -0.000039    -0.902547   108.189063
	   34 B(2,4,6)        =    110.415820    -0.000012     0.448880   110.864699
	   35 B(2,4,13)       =    110.174156    -0.000032    -0.319864   109.854292
	   36 B(2,4,14)       =    109.759434     0.000062     0.501834   110.261268
	   37 B(3,1,7)        =    111.397115     0.000092     1.020394   112.417509
	   38 B(3,1,8)        =    107.966394    -0.000026    -0.800319   107.166074
	   39 B(3,5,6)        =    111.490557     0.000026     0.790452   112.281010
	   40 B(3,5,15)       =    109.807321    -0.000035    -0.184043   109.623278
	   41 B(3,5,16)       =    109.090729     0.000052     0.296107   109.386836
	   42 B(4,2,9)        =    109.151491     0.000039     0.339151   109.490643
	   43 B(4,2,10)       =    109.785138    -0.000039    -0.026121   109.759017
	   44 B(4,6,5)        =    110.253335    -0.000013     0.512318   110.765653
	   45 B(4,6,17)       =    108.797106     0.000020    -0.118764   108.678342
	   46 B(4,6,18)       =    110.294832     0.000034     0.514845   110.809677
	   47 B(5,3,11)       =    109.678006     0.000037     0.525260   110.203266
	   48 B(5,3,12)       =    110.202086    -0.000014    -0.042111   110.159975
	   49 B(5,6,17)       =    110.149952    -0.000022    -0.219720   109.930232
	   50 B(5,6,18)       =    109.859467     0.000054     0.374921   110.234388
	   51 B(6,4,13)       =    108.768081     0.000020    -0.146100   108.621981
	   52 B(6,4,14)       =    110.258684     0.000037     0.609000   110.867684
	   53 B(6,5,15)       =    109.197997     0.000046     0.195968   109.393966
	   54 B(6,5,16)       =    109.824900    -0.000032    -0.124474   109.700426
	   55 B(7,1,8)        =    108.093849    -0.000050    -0.577214   107.516635
	   56 B(9,2,10)       =    107.321231    -0.000042    -1.042903   106.278328
	   57 B(11,3,12)      =    107.367309    -0.000057    -1.107066   106.260243
	   58 B(13,4,14)      =    107.410334    -0.000078    -1.160506   106.249827
	   59 B(15,5,16)      =    107.337360    -0.000061    -1.061966   106.275394
	   60 B(17,6,18)      =    107.436527    -0.000075    -1.125238   106.311289
	   61 B(19,7,20)      =    108.405959    -0.000094    -0.584122   107.821836
	   62 B(19,7,21)      =    108.317840    -0.000067    -0.361989   107.955851
	   63 B(20,7,21)      =    108.382936    -0.000122    -0.382068   108.000868
	   64 D(1,2,4,6)      =     32.023152    -0.000002    -1.551650    30.471503
	   65 D(1,2,4,13)     =    -88.142232    -0.000001    -1.449926   -89.592157
	   66 D(1,2,4,14)     =    153.778193     0.000016    -0.141524   153.636669
	   67 D(1,3,5,6)      =     32.664286    -0.000002    -1.448557    31.215728
	   68 D(1,3,5,15)     =    -88.495779    -0.000014    -2.096399   -90.592178
	   69 D(1,3,5,16)     =    154.128496     0.000000    -0.881083   153.247413
	   70 D(2,1,3,5)      =    -66.162913     0.000027     2.269909   -63.893005
	   71 D(2,1,3,11)     =    172.363336     0.000005     0.903198   173.266533
	   72 D(2,1,3,12)     =     55.050594     0.000028     2.333563    57.384157
	   73 D(2,1,7,19)     =    -64.167962    -0.000005    -1.052818   -65.220780
	   74 D(2,1,7,20)     =     55.797292    -0.000011    -1.415238    54.382054
	   75 D(2,1,7,21)     =    175.855930    -0.000003    -0.941101   174.914830
	   76 D(2,4,6,5)      =    -65.904889     0.000023     2.348457   -63.556433
	   77 D(2,4,6,17)     =     54.989651     0.000018     2.318536    57.308187
	   78 D(2,4,6,18)     =    172.593411     0.000005     1.179232   173.772643
	   79 D(3,1,2,4)      =     31.047456    -0.000012    -0.226773    30.820683
	   80 D(3,1,2,9)      =    -90.138819    -0.000028    -1.055858   -91.194677
	   81 D(3,1,2,10)     =    152.787938    -0.000006     0.437612   153.225550
	   82 D(3,1,7,19)     =     57.916506     0.000005     0.711618    58.628124
	   83 D(3,1,7,20)     =    177.881759    -0.000001     0.349198   178.230958
	   84 D(3,1,7,21)     =    -62.059602     0.000007     0.823335   -61.236267
	   85 D(3,5,6,4)      =     30.987695     0.000001    -0.185610    30.802085
	   86 D(3,5,6,17)     =    -89.094339     0.000000    -0.223503   -89.317843
	   87 D(3,5,6,18)     =    152.747736     0.000017     1.058940   153.806676
	   88 D(4,2,1,7)      =    154.255302     0.000017     1.866266   156.121569
	   89 D(4,2,1,8)      =    -86.891488     0.000008     1.050973   -85.840514
	   90 D(4,6,5,15)     =    152.502179     0.000002     0.238470   152.740649
	   91 D(4,6,5,16)     =    -90.049083    -0.000013    -1.001973   -91.051056
	   92 D(5,3,1,7)      =    171.013787    -0.000000     0.312241   171.326028
	   93 D(5,3,1,8)      =     52.476756     0.000005     0.931843    53.408599
	   94 D(5,6,4,13)     =     55.101576     0.000016     2.137811    57.239387
	   95 D(5,6,4,14)     =    172.635500     0.000002     0.993369   173.628869
	   96 D(6,4,2,9)      =    153.341368    -0.000002    -1.158365   152.183003
	   97 D(6,4,2,10)     =    -89.279669    -0.000013    -2.236577   -91.516246
	   98 D(6,5,3,11)     =    154.363184     0.000013    -0.199698   154.163486
	   99 D(6,5,3,12)     =    -87.642543     0.000000    -1.261950   -88.904493
	  100 D(7,1,2,9)      =     33.069027     0.000002     1.037181    34.106209
	  101 D(7,1,2,10)     =    -84.004215     0.000024     2.530651   -81.473564
	  102 D(7,1,3,11)     =     49.540036    -0.000021    -1.054470    48.485566
	  103 D(7,1,3,12)     =    -67.772706     0.000001     0.375896   -67.396811
	  104 D(8,1,2,9)      =    151.922237    -0.000008     0.221889   152.144126
	  105 D(8,1,2,10)     =     34.848995     0.000014     1.715358    36.564353
	  106 D(8,1,3,11)     =    -68.996995    -0.000016    -0.434868   -69.431863
	  107 D(8,1,3,12)     =    173.690263     0.000006     0.995497   174.685760
	  108 D(8,1,7,19)     =    176.377124     0.000003    -0.039070   176.338054
	  109 D(8,1,7,20)     =    -63.657623    -0.000003    -0.401490   -64.059113
	  110 D(8,1,7,21)     =     56.401016     0.000005     0.072647    56.473663
	  111 D(9,2,4,13)     =     33.175984    -0.000001    -1.056641    32.119343
	  112 D(9,2,4,14)     =    -84.903591     0.000016     0.251761   -84.651830
	  113 D(10,2,4,13)    =    150.554947    -0.000013    -2.134853   148.420095
	  114 D(10,2,4,14)    =     32.475372     0.000005    -0.826451    31.648921
	  115 D(11,3,5,15)    =     33.203119     0.000002    -0.847540    32.355579
	  116 D(11,3,5,16)    =    -84.172605     0.000016     0.367776   -83.804829
	  117 D(12,3,5,15)    =    151.197391    -0.000011    -1.909791   149.287600
	  118 D(12,3,5,16)    =     33.821667     0.000003    -0.694475    33.127191
	  119 D(13,4,6,17)    =    175.996117     0.000011     2.107890   178.104007
	  120 D(13,4,6,18)    =    -66.400123    -0.000003     0.968586   -65.431537
	  121 D(14,4,6,17)    =    -66.469960    -0.000004     0.963449   -65.506511
	  122 D(14,4,6,18)    =     51.133800    -0.000017    -0.175855    50.957945
	  123 D(15,5,6,17)    =     32.420145     0.000001     0.200577    32.620722
	  124 D(15,5,6,18)    =    -85.737780     0.000018     1.483021   -84.254760
	  125 D(16,5,6,17)    =    149.868883    -0.000014    -1.039867   148.829016
	  126 D(16,5,6,18)    =     31.710958     0.000003     0.242577    31.953535
	 ---------------------------------------------------------------------------
	Successfully symmetrized geometry.

  ==> Convergence Check <==

  Measures of convergence in internal coordinates in au.
  Criteria marked as inactive (o), active & met (*), and active & unmet ( ).
  --------------------------------------------------------------------------------------------- ~
   Step     Total Energy     Delta E     MAX Force     RMS Force      MAX Disp      RMS Disp    ~
  --------------------------------------------------------------------------------------------- ~
    Convergence Criteria    1.00e-06 *    3.00e-04 *             o    1.20e-03 *             o  ~
  --------------------------------------------------------------------------------------------- ~
      1    -274.93682786   -2.75e+02      3.64e-03      1.04e-03 o    4.42e-02      1.68e-02 o  ~
  ---------------------------------------------------------------------------------------------

	Writing optimization data to binary file.
	Structure for next step:
	Cartesian Geometry (in Angstrom)
	    C    -0.9750707366  -0.0329059878  -0.3290558041
	    C    -0.3199697710   1.3069335536   0.0492508423
	    C    -0.2810684691  -1.1741191436   0.4070537682
	    C     1.1750230419   1.1759405242   0.3775720258
	    C     1.1877341517  -1.3104408137  -0.0229476682
	    C     1.8073832602   0.0396357747  -0.4162371301
	    C    -2.4778281923  -0.0099446457  -0.0802733533
	    H    -0.8206082619  -0.1985970614  -1.4022567749
	    H    -0.8475328984   1.7300541917   0.9106202226
	    H    -0.4574433180   2.0158624089  -0.7732452085
	    H    -0.8128141316  -2.1152320569   0.2390173771
	    H    -0.3426873061  -0.9747661963   1.4825670210
	    H     1.3046796309   0.9710246251   1.4451312096
	    H     1.6896326175   2.1206148159   0.1826854626
	    H     1.2608146737  -2.0031274815  -0.8664044849
	    H     1.7646746108  -1.7576234310   0.7919163614
	    H     1.6485268097   0.2264911337  -1.4831604382
	    H     2.8899572921   0.0167323448  -0.2664155397
	    H    -2.6842938007   0.0883227835   0.9892329250
	    H    -2.9509269298   0.8331141839  -0.5912997576
	    H    -2.9540319170  -0.9288118842  -0.4324093700
			--------------------------
			 OPTKING Finished Execution 
			--------------------------

    Structure for next step:
    Molecular point group: c1
    Full point group: C1

    Geometry (in Angstrom), charge = 0, multiplicity = 1:

    C           -0.975805833351    -0.032553705916    -0.329586838968
    C           -0.320704865139     1.307285840663     0.048719808930
    C           -0.281803563081    -1.173766866232     0.406522736206
    C            1.174287953636     1.176292810753     0.377040993743
    C            1.186999063504    -1.310088536838    -0.023478701890
    C            1.806648174374     0.039988056855    -0.416768165322
    C           -2.478563294889    -0.009592363787    -0.080804387220
    H           -0.821343357975    -0.198244780198    -1.402787814028
    H           -0.848267994638     1.730406480428     0.910089192623
    H           -0.458178412674     2.016214698775    -0.773776245116
    H           -0.813549227683    -2.114879783233     0.238486344406
    H           -0.343422400312    -0.974413918147     1.482035993234
    H            1.303944543140     0.971376910916     1.444600181680
    H            1.688897531283     2.120967106204     0.182154429764
    H            1.260079585739    -2.002775207413    -0.866935521878
    H            1.763939524813    -1.757271155959     0.791385330938
    H            1.647791723242     0.226843416526    -1.483691477643
    H            2.889222210563     0.017084626877    -0.266946574348
    H           -2.685028904131     0.088675065772     0.988701895341
    H           -2.951662034269     0.833466469121    -0.591830793490
    H           -2.954767021504    -0.928459605862    -0.432940405251

gradient() will perform analytic gradient computation.

*** tstart() called on lenovo
*** at Tue Jan 18 21:27:26 2022

   => Loading Basis Set <=

    Name: DEF2-TZVP
    Role: ORBITAL
    Keyword: BASIS
    atoms 1-7  entry C          line   123 file /usr/share/psi4/basis/def2-tzvp.gbs 
    atoms 8-21 entry H          line    15 file /usr/share/psi4/basis/def2-tzvp.gbs 


         ---------------------------------------------------------
                                   SCF
               by Justin Turney, Rob Parrish, Andy Simmonett
                          and Daniel G. A. Smith
                              RKS Reference
                        4 Threads,   7629 MiB Core
         ---------------------------------------------------------

  ==> Geometry <==

    Molecular point group: c1
    Full point group: C1

    Geometry (in Angstrom), charge = 0, multiplicity = 1:

       Center              X                  Y                   Z               Mass       
    ------------   -----------------  -----------------  -----------------  -----------------
         C           -0.975805833351    -0.032553705916    -0.329586838968    12.000000000000
         C           -0.320704865139     1.307285840663     0.048719808930    12.000000000000
         C           -0.281803563081    -1.173766866232     0.406522736206    12.000000000000
         C            1.174287953636     1.176292810753     0.377040993743    12.000000000000
         C            1.186999063504    -1.310088536838    -0.023478701890    12.000000000000
         C            1.806648174374     0.039988056855    -0.416768165322    12.000000000000
         C           -2.478563294889    -0.009592363787    -0.080804387220    12.000000000000
         H           -0.821343357975    -0.198244780198    -1.402787814028     1.007825032230
         H           -0.848267994638     1.730406480428     0.910089192623     1.007825032230
         H           -0.458178412674     2.016214698775    -0.773776245116     1.007825032230
         H           -0.813549227683    -2.114879783233     0.238486344406     1.007825032230
         H           -0.343422400312    -0.974413918147     1.482035993234     1.007825032230
         H            1.303944543140     0.971376910916     1.444600181680     1.007825032230
         H            1.688897531283     2.120967106204     0.182154429764     1.007825032230
         H            1.260079585739    -2.002775207413    -0.866935521878     1.007825032230
         H            1.763939524813    -1.757271155959     0.791385330938     1.007825032230
         H            1.647791723242     0.226843416526    -1.483691477643     1.007825032230
         H            2.889222210563     0.017084626877    -0.266946574348     1.007825032230
         H           -2.685028904131     0.088675065772     0.988701895341     1.007825032230
         H           -2.951662034269     0.833466469121    -0.591830793490     1.007825032230
         H           -2.954767021504    -0.928459605862    -0.432940405251     1.007825032230

  Running in c1 symmetry.

  Rotational constants: A =      0.13892  B =      0.07396  C =      0.05458 [cm^-1]
  Rotational constants: A =   4164.82743  B =   2217.19949  C =   1636.34320 [MHz]
  Nuclear repulsion =  329.873708357273301

  Charge       = 0
  Multiplicity = 1
  Electrons    = 56
  Nalpha       = 28
  Nbeta        = 28

  ==> Algorithm <==

  SCF Algorithm Type is DF.
  DIIS enabled.
  MOM disabled.
  Fractional occupation disabled.
  Guess Type is READ.
  Energy threshold   = 1.00e-08
  Density threshold  = 1.00e-08
  Integral threshold = 0.00e+00

  ==> Primary Basis <==

  Basis Set: DEF2-TZVP
    Blend: DEF2-TZVP
    Number of shells: 133
    Number of basis function: 301
    Number of Cartesian functions: 336
    Spherical Harmonics?: true
    Max angular momentum: 3

  ==> DFT Potential <==

   => Composite Functional: PBE0 <= 

    PBE0 Hyb-GGA Exchange-Correlation Functional

    C. Adamo and V. Barone, J. Chem. Phys. 110, 6158 (1999)
    M. Ernzerhof and G. E. Scuseria, J. Chem. Phys. 110, 5029 (1999)

    Deriv               =              1
    GGA                 =           TRUE
    Meta                =          FALSE

    Exchange Hybrid     =           TRUE
    MP2 Hybrid          =          FALSE

   => Exchange Functionals <=

    0.7500   Perdew, Burke & Ernzerhof

   => Exact (HF) Exchange <=

    0.2500               HF 

   => Correlation Functionals <=

    1.0000   Perdew, Burke & Ernzerhof

   => Molecular Quadrature <=

    Radial Scheme          =       TREUTLER
    Pruning Scheme         =           FLAT
    Nuclear Scheme         =       TREUTLER

    BS radius alpha        =              1
    Pruning alpha          =              1
    Radial Points          =             75
    Spherical Points       =            302
    Total Points           =         472051
    Total Blocks           =           3477
    Max Points             =            256
    Max Functions          =            291

   => Loading Basis Set <=

    Name: (DEF2-TZVP AUX)
    Role: JKFIT
    Keyword: DF_BASIS_SCF
    atoms 1-7  entry C          line   203 file /usr/share/psi4/basis/def2-tzvp-jkfit.gbs 
    atoms 8-21 entry H          line    23 file /usr/share/psi4/basis/def2-tzvp-jkfit.gbs 

   => Loading Basis Set <=

    Name: DEF2-TZVP
    Role: ORBITAL
    Keyword: BASIS
    atoms 1-7  entry C          line   123 file /usr/share/psi4/basis/def2-tzvp.gbs 
    atoms 8-21 entry H          line    15 file /usr/share/psi4/basis/def2-tzvp.gbs 

  Reading orbitals from file 180, no projection.

  ==> Pre-Iterations <==

   -------------------------------------------------------
    Irrep   Nso     Nmo     Nalpha   Nbeta   Ndocc  Nsocc
   -------------------------------------------------------
     A        301     301       0       0       0       0
   -------------------------------------------------------
    Total     301     301      28      28      28       0
   -------------------------------------------------------

  ==> Integral Setup <==

  DFHelper Memory: AOs need 0.534 GiB; user supplied 2.620 GiB. Using in-core AOs.

  ==> MemDFJK: Density-Fitted J/K Matrices <==

    J tasked:                   Yes
    K tasked:                   Yes
    wK tasked:                   No
    OpenMP threads:               4
    Memory [MiB]:              2683
    Algorithm:                 Core
    Schwarz Cutoff:           1E-12
    Mask sparsity (%):       3.0552
    Fitting Condition:        1E-10

   => Auxiliary Basis Set <=

  Basis Set: (DEF2-TZVP AUX)
    Blend: DEF2-TZVP-JKFIT
    Number of shells: 259
    Number of basis function: 777
    Number of Cartesian functions: 903
    Spherical Harmonics?: true
    Max angular momentum: 4

  Cached 100.0% of DFT collocation blocks in 2.967 [GiB].

  Minimum eigenvalue in the overlap matrix is 4.3862051669E-05.
  Using Symmetric Orthogonalization.

  SCF Guess: Orbitals guess was supplied from a previous computation.

  ==> Iterations <==

                           Total Energy        Delta E     RMS |[F,P]|

   @DF-RKS iter   0:  -274.92761861230150   -2.74928e+02   1.79231e-04 
   @DF-RKS iter   1:  -274.93738956398477   -9.77095e-03   1.49752e-05 DIIS
   @DF-RKS iter   2:  -274.93740223747233   -1.26735e-05   8.03113e-06 DIIS
   @DF-RKS iter   3:  -274.93740472635648   -2.48888e-06   3.28483e-06 DIIS
   @DF-RKS iter   4:  -274.93740516260561   -4.36249e-07   7.91744e-07 DIIS
   @DF-RKS iter   5:  -274.93740519086441   -2.82588e-08   1.53372e-07 DIIS
   @DF-RKS iter   6:  -274.93740519182586   -9.61450e-10   5.88128e-08 DIIS
   @DF-RKS iter   7:  -274.93740519197604   -1.50180e-10   1.02547e-08 DIIS
   @DF-RKS iter   8:  -274.93740519198030   -4.26326e-12   3.30677e-09 DIIS
  Energy and wave function converged.


  ==> Post-Iterations <==

    Orbital Energies [Eh]
    ---------------------

    Doubly Occupied:                                                      

       1A    -10.216897     2A    -10.209638     3A    -10.209246  
       4A    -10.208978     5A    -10.208198     6A    -10.207584  
       7A    -10.203027     8A     -0.858019     9A     -0.782693  
      10A     -0.756270    11A     -0.691284    12A     -0.627425  
      13A     -0.607862    14A     -0.536511    15A     -0.500330  
      16A     -0.478920    17A     -0.452850    18A     -0.425527  
      19A     -0.417667    20A     -0.390812    21A     -0.381016  
      22A     -0.371716    23A     -0.362744    24A     -0.352479  
      25A     -0.348477    26A     -0.307695    27A     -0.302379  
      28A     -0.300177  

    Virtual:                                                              

      29A      0.039767    30A      0.061408    31A      0.065774  
      32A      0.078533    33A      0.099002    34A      0.102813  
      35A      0.112775    36A      0.116036    37A      0.123116  
      38A      0.134082    39A      0.140684    40A      0.146212  
      41A      0.148344    42A      0.165949    43A      0.182159  
      44A      0.184592    45A      0.206089    46A      0.208804  
      47A      0.225064    48A      0.229819    49A      0.239687  
      50A      0.242935    51A      0.256900    52A      0.267214  
      53A      0.272345    54A      0.290997    55A      0.300821  
      56A      0.317059    57A      0.325533    58A      0.337901  
      59A      0.361661    60A      0.391792    61A      0.402139  
      62A      0.412679    63A      0.417296    64A      0.418532  
      65A      0.420744    66A      0.433402    67A      0.439876  
      68A      0.446303    69A      0.454730    70A      0.456159  
      71A      0.465799    72A      0.470960    73A      0.474708  
      74A      0.483276    75A      0.490349    76A      0.494278  
      77A      0.498997    78A      0.506891    79A      0.512087  
      80A      0.522350    81A      0.539253    82A      0.542705  
      83A      0.576378    84A      0.593097    85A      0.623470  
      86A      0.636621    87A      0.667469    88A      0.685731  
      89A      0.699139    90A      0.707995    91A      0.792030  
      92A      0.806241    93A      0.814959    94A      0.827250  
      95A      0.838396    96A      0.860020    97A      0.874554  
      98A      0.895319    99A      0.910971   100A      0.916901  
     101A      0.963789   102A      0.965840   103A      0.984201  
     104A      1.012004   105A      1.013778   106A      1.023516  
     107A      1.054072   108A      1.067170   109A      1.074028  
     110A      1.087725   111A      1.136563   112A      1.142533  
     113A      1.149483   114A      1.185803   115A      1.193494  
     116A      1.210008   117A      1.216524   118A      1.238364  
     119A      1.257235   120A      1.273641   121A      1.287712  
     122A      1.302631   123A      1.340791   124A      1.374205  
     125A      1.446225   126A      1.462511   127A      1.484156  
     128A      1.529578   129A      1.544702   130A      1.564655  
     131A      1.577665   132A      1.586731   133A      1.604372  
     134A      1.624454   135A      1.631357   136A      1.638072  
     137A      1.644563   138A      1.658887   139A      1.668400  
     140A      1.678638   141A      1.691540   142A      1.712231  
     143A      1.745225   144A      1.763600   145A      1.774693  
     146A      1.784406   147A      1.819223   148A      1.842098  
     149A      1.856853   150A      1.879832   151A      1.896092  
     152A      1.902101   153A      1.920580   154A      1.950726  
     155A      1.981001   156A      1.989999   157A      2.004276  
     158A      2.033841   159A      2.043419   160A      2.093360  
     161A      2.104566   162A      2.116138   163A      2.139049  
     164A      2.159042   165A      2.180060   166A      2.195743  
     167A      2.265258   168A      2.299289   169A      2.308798  
     170A      2.339141   171A      2.345903   172A      2.356875  
     173A      2.381381   174A      2.410600   175A      2.425875  
     176A      2.454167   177A      2.467293   178A      2.486966  
     179A      2.494933   180A      2.509930   181A      2.547028  
     182A      2.552986   183A      2.573733   184A      2.585311  
     185A      2.605541   186A      2.614614   187A      2.624032  
     188A      2.629585   189A      2.639191   190A      2.652020  
     191A      2.665301   192A      2.685279   193A      2.692267  
     194A      2.705213   195A      2.717188   196A      2.729170  
     197A      2.747422   198A      2.756554   199A      2.786435  
     200A      2.789356   201A      2.813362   202A      2.822156  
     203A      2.843347   204A      2.850206   205A      2.883542  
     206A      2.887757   207A      2.940209   208A      2.946892  
     209A      2.977536   210A      2.999495   211A      3.036174  
     212A      3.083458   213A      3.095541   214A      3.107729  
     215A      3.123972   216A      3.150714   217A      3.166725  
     218A      3.174693   219A      3.186079   220A      3.200604  
     221A      3.212029   222A      3.240324   223A      3.250348  
     224A      3.260185   225A      3.292797   226A      3.309015  
     227A      3.328810   228A      3.342036   229A      3.346129  
     230A      3.355611   231A      3.374411   232A      3.387474  
     233A      3.396437   234A      3.423257   235A      3.446874  
     236A      3.461057   237A      3.473169   238A      3.493597  
     239A      3.522287   240A      3.541836   241A      3.549778  
     242A      3.557064   243A      3.570558   244A      3.608050  
     245A      3.627846   246A      3.636716   247A      3.667074  
     248A      3.695716   249A      3.706240   250A      3.735511  
     251A      3.753486   252A      3.767998   253A      3.791443  
     254A      3.837881   255A      3.879686   256A      3.893795  
     257A      3.926558   258A      3.940965   259A      3.977126  
     260A      4.001254   261A      4.014805   262A      4.021060  
     263A      4.072023   264A      4.085678   265A      4.087313  
     266A      4.106597   267A      4.155949   268A      4.171654  
     269A      4.186964   270A      4.198309   271A      4.262412  
     272A      4.299324   273A      4.348077   274A      4.377667  
     275A      4.412122   276A      4.424522   277A      4.480715  
     278A      4.492956   279A      4.538283   280A      4.580395  
     281A      4.595909   282A      4.640983   283A      4.670164  
     284A      4.682391   285A      4.738201   286A      4.792277  
     287A      4.844656   288A      4.887259   289A      4.936898  
     290A      4.960754   291A      4.993896   292A      5.050247  
     293A      5.091132   294A      5.152568   295A     22.443363  
     296A     22.478970   297A     22.507061   298A     22.602898  
     299A     22.639401   300A     22.683861   301A     22.800253  

    Final Occupation by Irrep:
              A 
    DOCC [    28 ]

  @DF-RKS Final Energy:  -274.93740519198030

   => Energetics <=

    Nuclear Repulsion Energy =            329.8737083572733013
    One-Electron Energy =               -1022.8633045889474715
    Two-Electron Energy =                 450.7124362388086070
    DFT Exchange-Correlation Energy =     -32.6602451991147831
    Empirical Dispersion Energy =           0.0000000000000000
    VV10 Nonlocal Energy =                  0.0000000000000000
    Total Energy =                       -274.9374051919803037

Computation Completed


Properties will be evaluated at   0.000000,   0.000000,   0.000000 [a0]

Properties computed using the SCF density matrix

  Nuclear Dipole Moment: [e a0]
     X:    -1.2397      Y:     0.0272      Z:     0.2049

  Electronic Dipole Moment: [e a0]
     X:     1.2791      Y:    -0.0297      Z:    -0.2378

  Dipole Moment: [e a0]
     X:     0.0395      Y:    -0.0025      Z:    -0.0330     Total:     0.0515

  Dipole Moment: [D]
     X:     0.1003      Y:    -0.0064      Z:    -0.0838     Total:     0.1309


*** tstop() called on lenovo at Tue Jan 18 21:27:59 2022
Module time:
	user time   =     115.22 seconds =       1.92 minutes
	system time =       1.16 seconds =       0.02 minutes
	total time  =         33 seconds =       0.55 minutes
Total time:
	user time   =     307.46 seconds =       5.12 minutes
	system time =       4.22 seconds =       0.07 minutes
	total time  =         88 seconds =       1.47 minutes

*** tstart() called on lenovo
*** at Tue Jan 18 21:27:59 2022


         ------------------------------------------------------------
                                   SCF GRAD                          
                          Rob Parrish, Justin Turney,                
                       Andy Simmonett, and Alex Sokolov              
         ------------------------------------------------------------

  ==> Geometry <==

    Molecular point group: c1
    Full point group: C1

    Geometry (in Angstrom), charge = 0, multiplicity = 1:

       Center              X                  Y                   Z               Mass       
    ------------   -----------------  -----------------  -----------------  -----------------
         C           -0.975805833351    -0.032553705916    -0.329586838968    12.000000000000
         C           -0.320704865139     1.307285840663     0.048719808930    12.000000000000
         C           -0.281803563081    -1.173766866232     0.406522736206    12.000000000000
         C            1.174287953636     1.176292810753     0.377040993743    12.000000000000
         C            1.186999063504    -1.310088536838    -0.023478701890    12.000000000000
         C            1.806648174374     0.039988056855    -0.416768165322    12.000000000000
         C           -2.478563294889    -0.009592363787    -0.080804387220    12.000000000000
         H           -0.821343357975    -0.198244780198    -1.402787814028     1.007825032230
         H           -0.848267994638     1.730406480428     0.910089192623     1.007825032230
         H           -0.458178412674     2.016214698775    -0.773776245116     1.007825032230
         H           -0.813549227683    -2.114879783233     0.238486344406     1.007825032230
         H           -0.343422400312    -0.974413918147     1.482035993234     1.007825032230
         H            1.303944543140     0.971376910916     1.444600181680     1.007825032230
         H            1.688897531283     2.120967106204     0.182154429764     1.007825032230
         H            1.260079585739    -2.002775207413    -0.866935521878     1.007825032230
         H            1.763939524813    -1.757271155959     0.791385330938     1.007825032230
         H            1.647791723242     0.226843416526    -1.483691477643     1.007825032230
         H            2.889222210563     0.017084626877    -0.266946574348     1.007825032230
         H           -2.685028904131     0.088675065772     0.988701895341     1.007825032230
         H           -2.951662034269     0.833466469121    -0.591830793490     1.007825032230
         H           -2.954767021504    -0.928459605862    -0.432940405251     1.007825032230

  Nuclear repulsion =  329.873708357273358

  ==> Basis Set <==

  Basis Set: DEF2-TZVP
    Blend: DEF2-TZVP
    Number of shells: 133
    Number of basis function: 301
    Number of Cartesian functions: 336
    Spherical Harmonics?: true
    Max angular momentum: 3

  ==> DFJKGrad: Density-Fitted SCF Gradients <==

    Gradient:                    1
    J tasked:                  Yes
    K tasked:                  Yes
    wK tasked:                  No
    OpenMP threads:              4
    Integrals threads:           4
    Memory [MiB]:             5722
    Schwarz Cutoff:          0E+00
    Fitting Condition:       1E-10

   => Auxiliary Basis Set <=

  Basis Set: (DEF2-TZVP AUX)
    Blend: DEF2-TZVP-JKFIT
    Number of shells: 259
    Number of basis function: 777
    Number of Cartesian functions: 903
    Spherical Harmonics?: true
    Max angular momentum: 4

  ==> DFT Potential <==

   => Composite Functional: PBE0 <= 

    PBE0 Hyb-GGA Exchange-Correlation Functional

    C. Adamo and V. Barone, J. Chem. Phys. 110, 6158 (1999)
    M. Ernzerhof and G. E. Scuseria, J. Chem. Phys. 110, 5029 (1999)

    Deriv               =              1
    GGA                 =           TRUE
    Meta                =          FALSE

    Exchange Hybrid     =           TRUE
    MP2 Hybrid          =          FALSE

   => Exchange Functionals <=

    0.7500   Perdew, Burke & Ernzerhof

   => Exact (HF) Exchange <=

    0.2500               HF 

   => Correlation Functionals <=

    1.0000   Perdew, Burke & Ernzerhof

   => Molecular Quadrature <=

    Radial Scheme          =       TREUTLER
    Pruning Scheme         =           FLAT
    Nuclear Scheme         =       TREUTLER

    BS radius alpha        =              1
    Pruning alpha          =              1
    Radial Points          =             75
    Spherical Points       =            302
    Total Points           =         472051
    Total Blocks           =           3477
    Max Points             =            256
    Max Functions          =            291


  -Total Gradient:
     Atom            X                  Y                   Z
    ------   -----------------  -----------------  -----------------
       1        0.000908728690     0.000264429635    -0.000264365469
       2       -0.000914136101     0.001065106939     0.000128850042
       3       -0.001082187045    -0.001626654686     0.001058456375
       4        0.000978279664     0.001807792523     0.001027387017
       5        0.000793871877    -0.001240479151     0.000034997246
       6        0.001696990867    -0.000130470172    -0.001156710907
       7       -0.003177819131    -0.000106431416     0.000429718414
       8       -0.000315209153    -0.000061563814     0.000894926269
       9        0.000135983239    -0.000410882352    -0.000305772855
      10        0.000483825817    -0.000214527374     0.000056466138
      11       -0.000025983494     0.000122362727    -0.000230317249
      12        0.000058462558     0.000328919906    -0.000967049436
      13       -0.000136566751    -0.000191492741    -0.000674329397
      14        0.000124071752    -0.000001251854    -0.000115530001
      15       -0.000286959911     0.000171322826     0.000096829054
      16        0.000063016791     0.000228162772    -0.000093986651
      17       -0.000244483164     0.000045092473     0.000638041571
      18       -0.000033808859     0.000138736862     0.000168557838
      19        0.000711449671    -0.000140802168    -0.000497327848
      20        0.000165116661     0.000006972644    -0.000136478022
      21        0.000097242071    -0.000067432704    -0.000098298619


*** tstop() called on lenovo at Tue Jan 18 21:28:14 2022
Module time:
	user time   =      50.94 seconds =       0.85 minutes
	system time =       0.54 seconds =       0.01 minutes
	total time  =         15 seconds =       0.25 minutes
Total time:
	user time   =     358.40 seconds =       5.97 minutes
	system time =       4.76 seconds =       0.08 minutes
	total time  =        103 seconds =       1.72 minutes

			-----------------------------------------
			 OPTKING 2.0: for geometry optimizations 
			  - R.A. King,  Bethel University        
			-----------------------------------------

	Previous internal coordinate definitions found.
	---Fragment 1 Geometry and Gradient---
	 C          -1.8440057767       -0.0615175886       -0.6228288602
	 C          -0.6060443622        2.4704122065        0.0920670958
	 C          -0.5325315554       -2.2180979123        0.7682166352
	 C           2.2190826248        2.2228712557        0.7125042162
	 C           2.2431031412       -2.4757085347       -0.0443683164
	 C           3.4140702546        0.0755664757       -0.7875776903
	 C          -4.6838058120       -0.0181269405       -0.1526981616
	 H          -1.5521140015       -0.3746283404       -2.6508847806
	 H          -1.6029941909        3.2699943337        1.7198193238
	 H          -0.8658317166        3.8100935908       -1.4622251857
	 H          -1.5373852299       -3.9965435786        0.4506738756
	 H          -0.6489742819       -1.8413754381        2.8006421353
	 H           2.4640980693        1.8356363262        2.7298987042
	 H           3.1915537881        4.0080469518        0.3442219848
	 H           2.3812053133       -3.7846966329       -1.6382707048
	 H           3.3333626038       -3.3207612129        1.4955015352
	 H           3.1138750687        0.4286719306       -2.8037705474
	 H           5.4598386936        0.0322852658       -0.5044559156
	 H          -5.0739692677        0.1675715885        1.8683758019
	 H          -5.5778328597        1.5750233614       -1.1183981123
	 H          -5.5837004352       -1.7545343736       -0.8181387946
	             0.0009087287        0.0002644296       -0.0002643655
	            -0.0009141361        0.0010651069        0.0001288500
	            -0.0010821870       -0.0016266547        0.0010584564
	             0.0009782797        0.0018077925        0.0010273870
	             0.0007938719       -0.0012404792        0.0000349972
	             0.0016969909       -0.0001304702       -0.0011567109
	            -0.0031778191       -0.0001064314        0.0004297184
	            -0.0003152092       -0.0000615638        0.0008949263
	             0.0001359832       -0.0004108824       -0.0003057729
	             0.0004838258       -0.0002145274        0.0000564661
	            -0.0000259835        0.0001223627       -0.0002303172
	             0.0000584626        0.0003289199       -0.0009670494
	            -0.0001365668       -0.0001914927       -0.0006743294
	             0.0001240718       -0.0000012519       -0.0001155300
	            -0.0002869599        0.0001713228        0.0000968291
	             0.0000630168        0.0002281628       -0.0000939867
	            -0.0002444832        0.0000450925        0.0006380416
	            -0.0000338089        0.0001387369        0.0001685578
	             0.0007114497       -0.0001408022       -0.0004973278
	             0.0001651167        0.0000069726       -0.0001364780
	             0.0000972421       -0.0000674327       -0.0000982986

	---Fragment 1 Intrafragment Coordinates---
	 - Coordinate -           - BOHR/RAD -       - ANG/DEG -
	 R(1,2)           =         2.907627	       1.538650
	 R(1,3)           =         2.881980	       1.525078
	 R(1,7)           =         2.878779	       1.523384
	 R(1,8)           =         2.072740	       1.096847
	 R(2,4)           =         2.903026	       1.536215
	 R(2,9)           =         2.069497	       1.095131
	 R(2,10)          =         2.068347	       1.094522
	 R(3,5)           =         2.903585	       1.536511
	 R(3,11)          =         2.067228	       1.093930
	 R(3,12)          =         2.070322	       1.095567
	 R(4,6)           =         2.879090	       1.523549
	 R(4,13)          =         2.068783	       1.094753
	 R(4,14)          =         2.065958	       1.093258
	 R(5,6)           =         2.903882	       1.536668
	 R(5,15)          =         2.067135	       1.093881
	 R(5,16)          =         2.067360	       1.094000
	 R(6,17)          =         2.068776	       1.094749
	 R(6,18)          =         2.065720	       1.093132
	 R(7,19)          =         2.066749	       1.093676
	 R(7,20)          =         2.066395	       1.093489
	 R(7,21)          =         2.065849	       1.093200
	 B(1,2,4)         =         1.974290	     113.118487
	 B(1,2,9)         =         1.901517	     108.948896
	 B(1,2,10)        =         1.902629	     109.012639
	 B(1,3,5)         =         1.945847	     111.488808
	 B(1,3,11)        =         1.926685	     110.390900
	 B(1,3,12)        =         1.888176	     108.184500
	 B(1,7,19)        =         1.925465	     110.320996
	 B(1,7,20)        =         1.941309	     111.228788
	 B(1,7,21)        =         1.943821	     111.372743
	 B(2,1,3)         =         1.916850	     109.827419
	 B(2,1,7)         =         1.946278	     111.513528
	 B(2,1,8)         =         1.888255	     108.189063
	 B(2,4,6)         =         1.934954	     110.864699
	 B(2,4,13)        =         1.917319	     109.854292
	 B(2,4,14)        =         1.924422	     110.261268
	 B(3,1,7)         =         1.962056	     112.417509
	 B(3,1,8)         =         1.870401	     107.166074
	 B(3,5,6)         =         1.959673	     112.281010
	 B(3,5,15)        =         1.913287	     109.623278
	 B(3,5,16)        =         1.909160	     109.386836
	 B(4,2,9)         =         1.910972	     109.490643
	 B(4,2,10)        =         1.915656	     109.759017
	 B(4,6,5)         =         1.933225	     110.765653
	 B(4,6,17)        =         1.896795	     108.678342
	 B(4,6,18)        =         1.933994	     110.809677
	 B(5,3,11)        =         1.923410	     110.203266
	 B(5,3,12)        =         1.922654	     110.159975
	 B(5,6,17)        =         1.918645	     109.930232
	 B(5,6,18)        =         1.923953	     110.234388
	 B(6,4,13)        =         1.895811	     108.621981
[...]
	 B(7,1,8)         =         1.879815	     107.705483
	 B(9,2,10)        =         1.851351	     106.074574
	 B(11,3,12)       =         1.849679	     105.978786
	 B(13,4,14)       =         1.850746	     106.039924
	 B(15,5,16)       =         1.852486	     106.139609
	 B(17,6,18)       =         1.851521	     106.084350
	 B(19,7,20)       =         1.877320	     107.562516
	 B(19,7,21)       =         1.880959	     107.771024
	 B(20,7,21)       =         1.882476	     107.857922
	 D(1,2,4,6)       =         0.524849	      30.071615
	 D(1,2,4,13)      =        -1.574043	     -90.186043
	 D(1,2,4,14)      =         2.675748	     153.309075
	 D(1,3,5,6)       =         0.544267	      31.184225
	 D(1,3,5,15)      =        -1.583140	     -90.707259
	 D(1,3,5,16)      =         2.673848	     153.200189
	 D(2,1,3,5)       =        -1.124664	     -64.438496
	 D(2,1,3,11)      =         3.014233	     172.702807
	 D(2,1,3,12)      =         0.994851	      57.000754
	 D(2,1,7,19)      =        -1.132040	     -64.861122
	 D(2,1,7,20)      =         0.954767	      54.704138
	 D(2,1,7,21)      =         3.057834	     175.200972
	 D(2,4,6,5)       =        -1.112882	     -63.763415
	 D(2,4,6,17)      =         0.999716	      57.279500
	 D(2,4,6,18)      =         3.030454	     173.632217
	 D(3,1,2,4)       =         0.549364	      31.476251
	 D(3,1,2,9)       =        -1.578681	     -90.451735
	 D(3,1,2,10)      =         2.690758	     154.169090
	 D(3,1,7,19)      =         1.024035	      58.672866
	 D(3,1,7,20)      =         3.110842	     178.238127
	 D(3,1,7,21)      =        -1.069277	     -61.265039
	 D(3,5,6,4)       =         0.543086	      31.116564
	 D(3,5,6,17)      =        -1.557883	     -89.260141
	 D(3,5,6,18)      =         2.690085	     154.130525
	 D(4,2,1,7)       =         2.733519	     156.619096
	 D(4,2,1,8)       =        -1.487076	     -85.203189
	 D(4,6,5,15)      =         2.674217	     153.221319
	 D(4,6,5,16)      =        -1.582175	     -90.651965
	 D(5,3,1,7)       =         2.985572	     171.060658
	 D(5,3,1,8)       =         0.921568	      52.801940
	 D(5,6,4,13)      =         0.997880	      57.174320
	 D(5,6,4,14)      =         3.026438	     173.402137
	 D(6,4,2,9)       =         2.648201	     151.730759
	 D(6,4,2,10)      =        -1.606394	     -92.039587
	 D(6,5,3,11)      =         2.691338	     154.202289
	 D(6,5,3,12)      =        -1.556597	     -89.186433
	 D(7,1,2,9)       =         0.605474	      34.691109
	 D(7,1,2,10)      =        -1.408272	     -80.688066
	 D(7,1,3,11)      =         0.841283	      48.201961
	 D(7,1,3,12)      =        -1.178099	     -67.500093
	 D(8,1,2,9)       =         2.668064	     152.868824
	 D(8,1,2,10)      =         0.654318	      37.489649
	 D(8,1,3,11)      =        -1.222721	     -70.056757
	 D(8,1,3,12)      =         3.041082	     174.241189
	 D(8,1,7,19)      =         3.083659	     176.680630
	 D(8,1,7,20)      =        -1.112719	     -63.754110
	 D(8,1,7,21)      =         0.990347	      56.742724
	 D(9,2,4,13)      =         0.549309	      31.473100
	 D(9,2,4,14)      =        -1.484085	     -85.031782
	 D(10,2,4,13)     =         2.577899	     147.702754
	 D(10,2,4,14)     =         0.544506	      31.197872
	 D(11,3,5,15)     =         0.563930	      32.310804
	 D(11,3,5,16)     =        -1.462267	     -83.781747
	 D(12,3,5,15)     =         2.599181	     148.922083
	 D(12,3,5,16)     =         0.572983	      32.829532
	 D(13,4,6,17)     =         3.110478	     178.217236
	 D(13,4,6,18)     =        -1.141970	     -65.430048
	 D(14,4,6,17)     =        -1.144150	     -65.554948
	 D(14,4,6,18)     =         0.886588	      50.797769
	 D(15,5,6,17)     =         0.573247	      32.844614
	 D(15,5,6,18)     =        -1.461970	     -83.764720
	 D(16,5,6,17)     =         2.600040	     148.971330
	 D(16,5,6,18)     =         0.564823	      32.361995

	Current energy   :      -274.9374645328

	Energy change for the previous step:
		Projected    :        -0.0000153607
		Actual       :         0.0000008356

	Performing BFGS update.
	Previous computed or guess Hessian on step 1.
	Steps to be used in Hessian update: 4 3
	Taking RFO optimization step.
	Going to follow RFO solution 1.
	Using RFO vector 1.
	Norm of target step-size    0.00646
	Projected energy change by RFO approximation:         0.0000004751

	Back-transformation to cartesian coordinates...
	Successfully converged to displaced geometry.

	--- Internal Coordinate Step in ANG or DEG, aJ/ANG or AJ/DEG ---
	 ---------------------------------------------------------------------------
	   Coordinate                Previous        Force       Change         New 
	   ----------                --------       ------       ------       ------
	    1 R(1,2)          =      1.536518     0.000508     0.000142     1.536660
	    2 R(1,3)          =      1.523572     0.000156     0.000055     1.523627
	    3 R(1,7)          =      1.518957    -0.000071    -0.000035     1.518923
	    4 R(1,8)          =      1.098313    -0.000213    -0.000059     1.098254
	    5 R(2,4)          =      1.534010    -0.000052     0.000012     1.534021
	    6 R(2,9)          =      1.096021    -0.000229    -0.000057     1.095964
	    7 R(2,10)         =      1.095022    -0.000080    -0.000029     1.094992
	    8 R(3,5)          =      1.534003    -0.000104     0.000016     1.534018
	    9 R(3,11)         =      1.094243    -0.000005    -0.000000     1.094243
	   10 R(3,12)         =      1.097089    -0.000291    -0.000083     1.097006
	   11 R(4,6)          =      1.521214    -0.000364    -0.000128     1.521086
	   12 R(4,13)         =      1.095846    -0.000226    -0.000067     1.095779
	   13 R(4,14)         =      1.093316    -0.000002     0.000003     1.093318
	   14 R(5,6)          =      1.534083     0.000195     0.000016     1.534098
	   15 R(5,15)         =      1.094296    -0.000081    -0.000027     1.094269
	   16 R(5,16)         =      1.094355    -0.000116    -0.000028     1.094327
	   17 R(6,17)         =      1.095760    -0.000264    -0.000072     1.095689
	   18 R(6,18)         =      1.093316     0.000035     0.000007     1.093324
	   19 R(7,19)         =      1.094829    -0.000362    -0.000105     1.094724
	   20 R(7,20)         =      1.093748    -0.000226    -0.000070     1.093678
	   21 R(7,21)         =      1.093384    -0.000251    -0.000071     1.093313
	   22 B(1,2,4)        =    112.936352    -0.000000    -0.001368   112.934984
	   23 B(1,2,9)        =    109.007649    -0.000000    -0.003908   109.003741
	   24 B(1,2,10)       =    109.030627    -0.000000    -0.004629   109.025998
	   25 B(1,3,5)        =    111.447128    -0.000001    -0.002142   111.444986
	   26 B(1,3,11)       =    110.473249    -0.000000    -0.000756   110.472492
	   27 B(1,3,12)       =    108.380072     0.000000    -0.005929   108.374143
	   28 B(1,7,19)       =    110.663312     0.000001     0.009383   110.672696
	   29 B(1,7,20)       =    111.324021     0.000001     0.003919   111.327940
	   30 B(1,7,21)       =    111.490995     0.000002     0.013293   111.504287
	   31 B(2,1,3)        =    109.629937    -0.000001    -0.007993   109.621945
	   32 B(2,1,7)        =    111.375022     0.000001     0.005281   111.380302
	   33 B(2,1,8)        =    108.172412    -0.000000    -0.000050   108.172361
	   34 B(2,4,6)        =    110.926182     0.000001     0.001034   110.927216
	   35 B(2,4,13)       =    109.880347     0.000001     0.007626   109.887974
	   36 B(2,4,14)       =    110.216908     0.000000     0.007983   110.224891
	   37 B(3,1,7)        =    112.484203     0.000001     0.007969   112.492172
	   38 B(3,1,8)        =    107.279714    -0.000000    -0.008578   107.271136
	   39 B(3,5,6)        =    112.107201     0.000001     0.002923   112.110124
	   40 B(3,5,15)       =    109.817912    -0.000000    -0.001104   109.816808
	   41 B(3,5,16)       =    109.360999     0.000000     0.003779   109.364778
	   42 B(4,2,9)        =    109.484953     0.000001     0.000286   109.485239
	   43 B(4,2,10)       =    110.070137    -0.000000     0.005810   110.075947
	   44 B(4,6,5)        =    110.696821    -0.000000    -0.005622   110.691199
	   45 B(4,6,17)       =    108.881826    -0.000000    -0.008164   108.873663
	   46 B(4,6,18)       =    110.884213    -0.000000    -0.001089   110.883125
	   47 B(5,3,11)       =    110.194635     0.000001     0.002671   110.197305
	   48 B(5,3,12)       =    110.207215     0.000000     0.006333   110.213548
	   49 B(5,6,17)       =    110.002869     0.000000     0.000600   110.003469
	   50 B(5,6,18)       =    110.179155     0.000001     0.010157   110.189312
	   51 B(6,4,13)       =    108.732395    -0.000001    -0.011233   108.721161
	   52 B(6,4,14)       =    110.915403    -0.000001    -0.009243   110.906160
	   53 B(6,5,15)       =    109.444327    -0.000001    -0.010447   109.433880
	   54 B(6,5,16)       =    109.793929    -0.000000     0.000543   109.794472
	   55 B(7,1,8)        =    107.705483    -0.000000     0.002787   107.708270
	   56 B(9,2,10)       =    106.074574     0.000000     0.004057   106.078630
	   57 B(11,3,12)      =    105.978786    -0.000000    -0.000146   105.978641
	   58 B(13,4,14)      =    106.039924     0.000000     0.003822   106.043746
	   59 B(15,5,16)      =    106.139609     0.000000     0.004385   106.143994
	   60 B(17,6,18)      =    106.084350     0.000000     0.004326   106.088676
	   61 B(19,7,20)      =    107.562516    -0.000001    -0.009029   107.553487
	   62 B(19,7,21)      =    107.771024    -0.000002    -0.011474   107.759550
	   63 B(20,7,21)      =    107.857922    -0.000001    -0.007729   107.850192
	   64 D(1,2,4,6)      =     30.071615     0.000000    -0.052368    30.019247
	   65 D(1,2,4,13)     =    -90.186043     0.000000    -0.043995   -90.230039
	   66 D(1,2,4,14)     =    153.309075    -0.000000    -0.057855   153.251220
	   67 D(1,3,5,6)      =     31.184225     0.000000    -0.058130    31.126095
	   68 D(1,3,5,15)     =    -90.707259     0.000000    -0.046021   -90.753280
	   69 D(1,3,5,16)     =    153.200189     0.000000    -0.052845   153.147344
	   70 D(2,1,3,5)      =    -64.438496     0.000000     0.001302   -64.437194
	   71 D(2,1,3,11)     =    172.702807     0.000000    -0.000088   172.702719
	   72 D(2,1,3,12)     =     57.000754     0.000000     0.003906    57.004660
	   73 D(2,1,7,19)     =    -64.861122     0.000000     0.003287   -64.857836
	   74 D(2,1,7,20)     =     54.704138     0.000000     0.000718    54.704856
	   75 D(2,1,7,21)     =    175.200972     0.000000     0.002666   175.203638
	   76 D(2,4,6,5)      =    -63.763415    -0.000000    -0.010210   -63.773625
	   77 D(2,4,6,17)     =     57.279500    -0.000000    -0.018267    57.261234
	   78 D(2,4,6,18)     =    173.632217    -0.000000    -0.018499   173.613718
	   79 D(3,1,2,4)      =     31.476251     0.000000     0.059013    31.535264
	   80 D(3,1,2,9)      =    -90.451735    -0.000000     0.062351   -90.389384
	   81 D(3,1,2,10)     =    154.169090    -0.000000     0.062177   154.231266
	   82 D(3,1,7,19)     =     58.672866    -0.000000     0.002711    58.675577
	   83 D(3,1,7,20)     =    178.238127    -0.000000     0.000142   178.238269
	   84 D(3,1,7,21)     =    -61.265039    -0.000000     0.002090   -61.262949
	   85 D(3,5,6,4)      =     31.116564     0.000000     0.065676    31.182240
	   86 D(3,5,6,17)     =    -89.260141     0.000000     0.079087   -89.181054
	   87 D(3,5,6,18)     =    154.130525     0.000000     0.067452   154.197976
	   88 D(4,2,1,7)      =    156.619096     0.000000     0.067205   156.686301
	   89 D(4,2,1,8)      =    -85.203189     0.000000     0.073652   -85.129537
	   90 D(4,6,5,15)     =    153.221319     0.000000     0.058912   153.280231
	   91 D(4,6,5,16)     =    -90.651965    -0.000000     0.058512   -90.593454
	   92 D(5,3,1,7)      =    171.060658     0.000000    -0.005296   171.055361
	   93 D(5,3,1,8)      =     52.801940    -0.000000    -0.007834    52.794106
	   94 D(5,6,4,13)     =     57.174320     0.000000    -0.007402    57.166918
	   95 D(5,6,4,14)     =    173.402137    -0.000000    -0.014667   173.387469
	   96 D(6,4,2,9)      =    151.730759     0.000000    -0.058090   151.672669
	   97 D(6,4,2,10)     =    -92.039587     0.000000    -0.049677   -92.089264
	   98 D(6,5,3,11)     =    154.202289    -0.000000    -0.058694   154.143594
	   99 D(6,5,3,12)     =    -89.186433     0.000000    -0.053506   -89.239938
	  100 D(7,1,2,9)      =     34.691109     0.000000     0.070543    34.761653
	  101 D(7,1,2,10)     =    -80.688066     0.000000     0.070369   -80.617697
	  102 D(7,1,3,11)     =     48.201961     0.000000    -0.006687    48.195274
	  103 D(7,1,3,12)     =    -67.500093     0.000000    -0.002692   -67.502785
	  104 D(8,1,2,9)      =    152.868824     0.000000     0.076990   152.945814
	  105 D(8,1,2,10)     =     37.489649     0.000000     0.076816    37.566465
	  106 D(8,1,3,11)     =    -70.056757    -0.000000    -0.009224   -70.065981
	  107 D(8,1,3,12)     =    174.241189     0.000000    -0.005230   174.235959
	  108 D(8,1,7,19)     =    176.680630     0.000000    -0.001413   176.679216
	  109 D(8,1,7,20)     =    -63.754110    -0.000000    -0.003982   -63.758091
	  110 D(8,1,7,21)     =     56.742724     0.000000    -0.002034    56.740690
	  111 D(9,2,4,13)     =     31.473100     0.000000    -0.049716    31.423384
	  112 D(9,2,4,14)     =    -85.031782    -0.000000    -0.063577   -85.095358
	  113 D(10,2,4,13)    =    147.702754     0.000000    -0.041304   147.661450
	  114 D(10,2,4,14)    =     31.197872    -0.000000    -0.055164    31.142708
	  115 D(11,3,5,15)    =     32.310804     0.000000    -0.046586    32.264219
	  116 D(11,3,5,16)    =    -83.781747    -0.000000    -0.053410   -83.835157
	  117 D(12,3,5,15)    =    148.922083     0.000000    -0.041397   148.880686
	  118 D(12,3,5,16)    =     32.829532     0.000000    -0.048221    32.781310
	  119 D(13,4,6,17)    =    178.217236     0.000000    -0.015459   178.201776
	  120 D(13,4,6,18)    =    -65.430048     0.000000    -0.015692   -65.445740
	  121 D(14,4,6,17)    =    -65.554948    -0.000000    -0.022725   -65.577672
	  122 D(14,4,6,18)    =     50.797769    -0.000000    -0.022957    50.774812
	  123 D(15,5,6,17)    =     32.844614     0.000000     0.072322    32.916937
	  124 D(15,5,6,18)    =    -83.764720    -0.000000     0.060687   -83.704033
	  125 D(16,5,6,17)    =    148.971330     0.000000     0.071922   149.043252
	  126 D(16,5,6,18)    =     32.361995    -0.000000     0.060287    32.422283
	 ---------------------------------------------------------------------------
	Successfully symmetrized geometry.

  ==> Convergence Check <==

  Measures of convergence in internal coordinates in au.
  Criteria marked as inactive (o), active & met (*), and active & unmet ( ).
  ---------------------------------------------------------------------------------------------
   Step     Total Energy     Delta E     MAX Force     RMS Force      MAX Disp      RMS Disp   
  ---------------------------------------------------------------------------------------------
    Convergence Criteria    1.00e-06 *    3.00e-04 *             o    1.20e-03 *             o
  ---------------------------------------------------------------------------------------------
      5    -274.93746453    8.36e-07 *    6.17e-05 *    1.30e-05 o    1.38e-03      5.76e-04 o  ~
  ---------------------------------------------------------------------------------------------


  **** Optimization is complete! (in 5 steps) ****

  ==> Optimization Summary <==

  Measures of convergence in internal coordinates in au.
  --------------------------------------------------------------------------------------------------------------- ~
   Step         Total Energy             Delta E       MAX Force       RMS Force        MAX Disp        RMS Disp  ~
  --------------------------------------------------------------------------------------------------------------- ~
      1    -274.936827863553   -274.936827863553      0.00363952      0.00103542      0.04416819      0.01676720  ~
      2    -274.937405191980     -0.000577328428      0.00212124      0.00040643      0.02633136      0.01019517  ~
      3    -274.937463723114     -0.000058531134      0.00034362      0.00008004      0.00656848      0.00278401  ~
      4    -274.937465368404     -0.000001645290      0.00032268      0.00005266      0.00603476      0.00278470  ~
      5    -274.937464532803      0.000000835601      0.00006172      0.00001297      0.00138032      0.00057568  ~
  --------------------------------------------------------------------------------------------------------------- ~

	Writing optimization data to binary file.
	Final energy is   -274.9374645328026
	Final (previous) structure:
	Cartesian Geometry (in Angstrom)
	    C    -0.9722110106  -0.0327178145  -0.3317394209
	    C    -0.3230575991   1.3051763356   0.0549465016
	    C    -0.2799358137  -1.1703549653   0.4084020749
	    C     1.1707491624   1.1735533229   0.3780596124
	    C     1.1865243780  -1.3080141347  -0.0202102127
	    C     1.8009202197   0.0403620054  -0.4174616034
	    C    -2.4717798740  -0.0105506963  -0.0908392374
	    H    -0.8087844643  -0.1950236872  -1.4056295336
	    H    -0.8495212096   1.7199328933   0.9221690658
	    H    -0.4695454065   2.0218373804  -0.7599221104
	    H    -0.8113728409  -2.1127804385   0.2447639560
	    H    -0.3428586988  -0.9712230168   1.4854308307
	    H     1.3043952140   0.9702107563   1.4465484474
	    H     1.6840387395   2.1191808048   0.1839931571
	    H     1.2636624230  -2.0050932080  -0.8602184482
	    H     1.7632973914  -1.7516361470   0.7971908469
	    H     1.6407454705   0.2251060645  -1.4855926815
	    H     2.8844283912   0.0183001103  -0.2730171679
	    H    -2.6900359915   0.0903337794   0.9772603697
	    H    -2.9448589677   0.8307839411  -0.6052679767
	    H    -2.9477420718  -0.9296150780  -0.4433568897
	Saving final (previous) structure.
			--------------------------
			 OPTKING Finished Execution 
			--------------------------

    Final optimized geometry and variables:
    Molecular point group: c1
    Full point group: C1

    Geometry (in Angstrom), charge = 0, multiplicity = 1:

    C           -0.972211014391    -0.032717814643    -0.331739422209
    C           -0.323057600348     1.305176340718     0.054946501819
    C           -0.279935814812    -1.170354969940     0.408402076508
    C            1.170749167039     1.173553327504     0.378059613878
    C            1.186524382695    -1.308014139835    -0.020210212822
    C            1.800920226747     0.040362005567    -0.417461604997
    C           -2.471779883685    -0.010550696375    -0.090839237753
    H           -0.808784467473    -0.195023687970    -1.405629539166
    H           -0.849521212962     1.719932900083     0.922169069395
    H           -0.469545408341     2.021837388391    -0.759922113358
    H           -0.811372844106    -2.112780446843     0.244763956921
    H           -0.342858700161    -0.971223020572     1.485430836542
    H            1.304395219150     0.970210760071     1.446548453093
    H            1.684038746152     2.119180813103     0.183993157805
    H            1.263662428002    -2.005093215836    -0.860218451627
    H            1.763297398323    -1.751636153856     0.797190850037
    H            1.640745476951     0.225106065369    -1.485592687308
    H            2.884428402518     0.018300110406    -0.273017168956
    H           -2.690036002059     0.090333779764     0.977260373529
    H           -2.944858979248     0.830783944343    -0.605267979101
    H           -2.947742083396    -0.929615081637    -0.443356891489

	Removing binary optimization data file.
	Cleaning optimization helper files.

    Psi4 stopped on: Tuesday, 18 January 2022 09:30PM
    Psi4 wall time for execution: 0:03:50.65

*** Psi4 exiting successfully. Buy a developer a beer!
