
    -----------------------------------------------------------------------
          Psi4: An Open-Source Ab Initio Electronic Structure Package
                               Psi4 1.3.2 release

                         Git: Rev {} zzzzzzz 


    R. M. Parrish, L. A. Burns, D. G. A. Smith, A. C. Simmonett,
    A. E. DePrince III, E. G. Hohenstein, U. Bozkaya, A. Yu. Sokolov,
    R. Di Remigio, R. M. Richard, J. F. Gonthier, A. M. James,
    H. R. McAlexander, A. Kumar, M. Saitow, X. Wang, B. P. Pritchard,
    P. Verma, H. F. Schaefer III, K. Patkowski, R. A. King, E. F. Valeev,
    F. A. Evangelista, J. M. Turney, T. D. Crawford, and C. D. Sherrill,
    J. Chem. Theory Comput. 13(7) pp 3185--3197 (2017).
    (doi: 10.1021/acs.jctc.7b00174)


                         Additional Contributions by
    P. Kraus, H. Kruse, M. H. Lechner, M. C. Schieber, R. A. Shaw,
    A. Alenaizan, R. Galvelis, Z. L. Glick, S. Lehtola, and J. P. Misiewicz

    -----------------------------------------------------------------------


    Psi4 started on: Saturday, 10 July 2021 01:49PM

    Process ID: 1370565
    Host:       thinkpad
    PSIDATADIR: /usr/share/psi4
    Memory:     500.0 MiB
    Threads:    4
    
  ==> Input File <==

--------------------------------------------------------------------------
memory 8 gb

molecule {
0 1
 C          1.0823955212       -0.1035951742       -0.4416816538
 C          0.2691629628       -1.2616360470        0.1554829157
 C          0.2026957812        1.1495472537       -0.5952578259
 C         -1.1787150502       -1.2052290638       -0.3181965494
 C         -0.8926846169        1.1855586857        0.4643103732
 C         -1.8811666677        0.0329166053        0.2528454357
 C          2.3089221254        0.1823003064        0.4219249613
 H          1.4315380254       -0.4010036466       -1.4368553967
 H          0.2885384641       -1.2044568405        1.2456164044
 H          0.7226119409       -2.2128245173       -0.1302090563
 H         -0.2655292558        1.1587440953       -1.5815055524
 H          0.8249450791        2.0433624172       -0.5210823810
 H         -1.7110998390       -2.1076907602       -0.0122246849
 H         -1.1901016023       -1.1736630325       -1.4095646190
 H         -1.4224766894        2.1391966413        0.4243343370
 H         -0.4350716147        1.1098498437        1.4521139814
 H         -2.6729737286        0.3447737619       -0.4310695573
 H         -2.3530211344       -0.2141204424        1.2059625307
 H          2.8939752582       -0.7242630564        0.5628383092
 H          2.9445379322        0.9305012436       -0.0470731806
 H          2.0093743318        0.5515692091        1.4005508085
}

set basis def2-tzvp
optimize('pbe0')
--------------------------------------------------------------------------

  Memory set to   7.451 GiB by Python driver.
gradient() will perform analytic gradient computation.

*** tstart() called on thinkpad
*** at Sat Jul 10 13:49:24 2021

   => Loading Basis Set <=

    Name: DEF2-TZVP
    Role: ORBITAL
    Keyword: BASIS
    atoms 1-7  entry C          line   123 file /usr/share/psi4/basis/def2-tzvp.gbs 
    atoms 8-21 entry H          line    15 file /usr/share/psi4/basis/def2-tzvp.gbs 


         ---------------------------------------------------------
                                   SCF
               by Justin Turney, Rob Parrish, Andy Simmonett
                          and Daniel G. A. Smith
                              RKS Reference
                        4 Threads,   7629 MiB Core
         ---------------------------------------------------------

  ==> Geometry <==

    Molecular point group: c1
    Full point group: C1

    Geometry (in Angstrom), charge = 0, multiplicity = 1:

       Center              X                  Y                   Z               Mass       
    ------------   -----------------  -----------------  -----------------  -----------------
         C            1.082386312815    -0.103597248624    -0.441687893588    12.000000000000
         C            0.269153754415    -1.261638121424     0.155476675912    12.000000000000
         C            0.202686572815     1.149545179276    -0.595264065688    12.000000000000
         C           -1.178724258585    -1.205231138224    -0.318202789188    12.000000000000
         C           -0.892693825285     1.185556611276     0.464304133412    12.000000000000
         C           -1.881175876085     0.032914530876     0.252839195912    12.000000000000
         C            2.308912917015     0.182298231976     0.421918721512    12.000000000000
         H            1.431528817015    -0.401005721024    -1.436861636488     1.007825032230
         H            0.288529255715    -1.204458914924     1.245610164612     1.007825032230
         H            0.722602732515    -2.212826591724    -0.130215296088     1.007825032230
         H           -0.265538464185     1.158742020876    -1.581511792188     1.007825032230
         H            0.824935870715     2.043360342776    -0.521088620788     1.007825032230
         H           -1.711109047385    -2.107692834624    -0.012230924688     1.007825032230
         H           -1.190110810685    -1.173665106924    -1.409570858788     1.007825032230
         H           -1.422485897785     2.139194566876     0.424328097212     1.007825032230
         H           -0.435080823085     1.109847769276     1.452107741612     1.007825032230
         H           -2.672982936985     0.344771687476    -0.431075797088     1.007825032230
         H           -2.353030342785    -0.214122516824     1.205956290912     1.007825032230
         H            2.893966049815    -0.724265130824     0.562832069412     1.007825032230
         H            2.944528723815     0.930499169176    -0.047079420388     1.007825032230
         H            2.009365123415     0.551567134676     1.400544568712     1.007825032230

  Running in c1 symmetry.

  Rotational constants: A =      0.13683  B =      0.07629  C =      0.05858 [cm^-1]
  Rotational constants: A =   4102.04329  B =   2287.14158  C =   1756.06546 [MHz]
  Nuclear repulsion =  332.420626649778910

  Charge       = 0
  Multiplicity = 1
  Electrons    = 56
  Nalpha       = 28
  Nbeta        = 28

  ==> Algorithm <==

  SCF Algorithm Type is DF.
  DIIS enabled.
  MOM disabled.
  Fractional occupation disabled.
  Guess Type is SAD.
  Energy threshold   = 1.00e-08
  Density threshold  = 1.00e-08
  Integral threshold = 0.00e+00

  ==> Primary Basis <==

  Basis Set: DEF2-TZVP
    Blend: DEF2-TZVP
    Number of shells: 133
    Number of basis function: 301
    Number of Cartesian functions: 336
    Spherical Harmonics?: true
    Max angular momentum: 3

  ==> DFT Potential <==

   => Composite Functional: PBE0 <= 

    PBE0 Hyb-GGA Exchange-Correlation Functional

    C. Adamo and V. Barone, J. Chem. Phys. 110, 6158 (1999)
    M. Ernzerhof and G. E. Scuseria, J. Chem. Phys. 110, 5029 (1999)

    Deriv               =              1
    GGA                 =           TRUE
    Meta                =          FALSE

    Exchange Hybrid     =           TRUE
    MP2 Hybrid          =          FALSE

   => Exchange Functionals <=

    0.7500   Perdew, Burke & Ernzerhof

   => Exact (HF) Exchange <=

    0.2500               HF 

   => Correlation Functionals <=

    1.0000   Perdew, Burke & Ernzerhof

   => Molecular Quadrature <=

    Radial Scheme          =       TREUTLER
    Pruning Scheme         =           FLAT
    Nuclear Scheme         =       TREUTLER

    BS radius alpha        =              1
    Pruning alpha          =              1
    Radial Points          =             75
    Spherical Points       =            302
    Total Points           =         472047
    Total Blocks           =           3443
    Max Points             =            256
    Max Functions          =            291

   => Loading Basis Set <=

    Name: (DEF2-TZVP AUX)
    Role: JKFIT
    Keyword: DF_BASIS_SCF
    atoms 1-7  entry C          line   203 file /usr/share/psi4/basis/def2-tzvp-jkfit.gbs 
    atoms 8-21 entry H          line    23 file /usr/share/psi4/basis/def2-tzvp-jkfit.gbs 

  ==> Pre-Iterations <==

   -------------------------------------------------------
    Irrep   Nso     Nmo     Nalpha   Nbeta   Ndocc  Nsocc
   -------------------------------------------------------
     A        301     301       0       0       0       0
   -------------------------------------------------------
    Total     301     301      28      28      28       0
   -------------------------------------------------------

  ==> Integral Setup <==

  DFHelper Memory: AOs need 0.537 GiB; user supplied 2.593 GiB. Using in-core AOs.

  ==> MemDFJK: Density-Fitted J/K Matrices <==

    J tasked:                   Yes
    K tasked:                   Yes
    wK tasked:                   No
    OpenMP threads:               4
    Memory [MiB]:              2655
    Algorithm:                 Core
    Schwarz Cutoff:           1E-12
    Mask sparsity (%):       2.5496
    Fitting Condition:        1E-10

   => Auxiliary Basis Set <=

  Basis Set: (DEF2-TZVP AUX)
    Blend: DEF2-TZVP-JKFIT
    Number of shells: 259
    Number of basis function: 777
    Number of Cartesian functions: 903
    Spherical Harmonics?: true
    Max angular momentum: 4

  Cached 100.0% of DFT collocation blocks in 2.995 [GiB].

  Minimum eigenvalue in the overlap matrix is 4.6769516993E-05.
  Using Symmetric Orthogonalization.

  SCF Guess: Superposition of Atomic Densities via on-the-fly atomic UHF.

  ==> Iterations <==

                           Total Energy        Delta E     RMS |[F,P]|

   @DF-RKS iter SAD:  -274.61372998675375   -2.74614e+02   0.00000e+00 
   @DF-RKS iter   1:  -274.13660876966912    4.77121e-01   4.11416e-03 DIIS
   @DF-RKS iter   2:  -273.33669603830691    7.99913e-01   5.76966e-03 DIIS
   @DF-RKS iter   3:  -274.92180591303520   -1.58511e+00   5.81917e-04 DIIS
   @DF-RKS iter   4:  -274.93333915742483   -1.15332e-02   2.61351e-04 DIIS
   @DF-RKS iter   5:  -274.93609593525423   -2.75678e-03   5.89401e-05 DIIS
   @DF-RKS iter   6:  -274.93623893837133   -1.43003e-04   9.31200e-06 DIIS
   @DF-RKS iter   7:  -274.93624272867504   -3.79030e-06   3.14333e-06 DIIS
   @DF-RKS iter   8:  -274.93624317282911   -4.44154e-07   6.94250e-07 DIIS
   @DF-RKS iter   9:  -274.93624319218111   -1.93520e-08   2.02191e-07 DIIS
   @DF-RKS iter  10:  -274.93624319399567   -1.81456e-09   3.73007e-08 DIIS
   @DF-RKS iter  11:  -274.93624319405859   -6.29257e-11   6.56734e-09 DIIS
  Energy and wave function converged.


  ==> Post-Iterations <==

    Orbital Energies [Eh]
    ---------------------

    Doubly Occupied:                                                      

       1A    -10.216750     2A    -10.207955     3A    -10.207713  
       4A    -10.207516     5A    -10.206548     6A    -10.206282  
       7A    -10.200709     8A     -0.860031     9A     -0.781838  
      10A     -0.756850    11A     -0.691597    12A     -0.633637  
      13A     -0.600323    14A     -0.533390    15A     -0.503087  
      16A     -0.488279    17A     -0.450208    18A     -0.426316  
      19A     -0.410741    20A     -0.399957    21A     -0.380817  
      22A     -0.370260    23A     -0.362510    24A     -0.356979  
      25A     -0.345227    26A     -0.304721    27A     -0.302749  
      28A     -0.301699  

    Virtual:                                                              

      29A      0.039784    30A      0.059322    31A      0.068925  
      32A      0.084739    33A      0.100252    34A      0.103316  
      35A      0.108514    36A      0.114966    37A      0.124543  
      38A      0.126060    39A      0.138089    40A      0.146963  
      41A      0.159164    42A      0.164816    43A      0.185237  
      44A      0.188789    45A      0.203566    46A      0.215628  
      47A      0.222206    48A      0.233719    49A      0.241780  
      50A      0.247835    51A      0.252322    52A      0.266219  
      53A      0.273727    54A      0.281426    55A      0.301516  
      56A      0.319792    57A      0.325104    58A      0.347435  
      59A      0.373916    60A      0.390848    61A      0.409375  
      62A      0.414531    63A      0.418229    64A      0.423083  
      65A      0.428103    66A      0.431642    67A      0.435620  
      68A      0.443284    69A      0.454821    70A      0.456851  
      71A      0.461484    72A      0.470307    73A      0.471905  
      74A      0.475932    75A      0.485850    76A      0.490738  
      77A      0.498807    78A      0.510567    79A      0.523072  
      80A      0.531079    81A      0.539220    82A      0.553808  
      83A      0.584374    84A      0.612650    85A      0.627852  
      86A      0.652165    87A      0.662947    88A      0.676127  
      89A      0.690468    90A      0.718780    91A      0.780442  
      92A      0.799354    93A      0.822115    94A      0.831809  
      95A      0.839824    96A      0.857116    97A      0.890328  
      98A      0.909642    99A      0.919706   100A      0.935268  
     101A      0.957137   102A      0.963816   103A      0.976174  
     104A      1.000648   105A      1.032051   106A      1.038000  
     107A      1.045284   108A      1.065716   109A      1.107247  
     110A      1.108212   111A      1.133375   112A      1.157660  
     113A      1.160285   114A      1.182259   115A      1.193335  
     116A      1.208628   117A      1.234701   118A      1.241950  
     119A      1.255556   120A      1.268792   121A      1.281782  
     122A      1.293814   123A      1.316297   124A      1.360102  
     125A      1.438872   126A      1.445410   127A      1.514884  
     128A      1.526243   129A      1.535345   130A      1.568044  
     131A      1.576322   132A      1.586501   133A      1.607090  
     134A      1.617935   135A      1.631651   136A      1.637738  
     137A      1.643823   138A      1.652687   139A      1.668866  
     140A      1.683726   141A      1.701918   142A      1.713258  
     143A      1.731915   144A      1.753916   145A      1.773530  
     146A      1.793840   147A      1.805726   148A      1.841834  
     149A      1.873649   150A      1.895156   151A      1.904196  
     152A      1.926145   153A      1.942651   154A      1.964464  
     155A      1.980654   156A      1.983162   157A      2.021326  
     158A      2.025575   159A      2.067149   160A      2.086528  
     161A      2.093541   162A      2.117791   163A      2.137065  
     164A      2.188330   165A      2.198565   166A      2.253503  
     167A      2.273945   168A      2.301967   169A      2.321312  
     170A      2.349671   171A      2.364663   172A      2.375872  
     173A      2.397424   174A      2.412982   175A      2.431864  
     176A      2.447601   177A      2.459741   178A      2.474496  
     179A      2.483275   180A      2.504777   181A      2.541057  
     182A      2.564361   183A      2.575157   184A      2.585223  
     185A      2.598016   186A      2.610595   187A      2.627831  
     188A      2.633296   189A      2.647593   190A      2.655316  
     191A      2.679876   192A      2.686189   193A      2.701667  
     194A      2.708552   195A      2.717878   196A      2.732761  
     197A      2.740612   198A      2.771850   199A      2.794643  
     200A      2.806912   201A      2.822979   202A      2.834748  
     203A      2.849497   204A      2.866438   205A      2.870430  
     206A      2.891620   207A      2.897344   208A      2.954879  
     209A      3.007582   210A      3.011477   211A      3.029897  
     212A      3.069147   213A      3.090442   214A      3.099418  
     215A      3.130054   216A      3.154410   217A      3.168638  
     218A      3.180972   219A      3.189389   220A      3.197542  
     221A      3.214002   222A      3.229386   223A      3.257079  
     224A      3.270068   225A      3.286510   226A      3.294021  
     227A      3.330321   228A      3.345246   229A      3.360932  
     230A      3.386744   231A      3.390290   232A      3.400586  
     233A      3.411329   234A      3.418999   235A      3.444222  
     236A      3.457055   237A      3.481996   238A      3.509584  
     239A      3.531066   240A      3.539369   241A      3.543747  
     242A      3.579375   243A      3.591950   244A      3.607253  
     245A      3.630854   246A      3.651156   247A      3.662332  
     248A      3.675827   249A      3.706915   250A      3.732932  
     251A      3.788030   252A      3.823694   253A      3.841079  
     254A      3.856570   255A      3.879313   256A      3.900509  
     257A      3.934011   258A      3.947386   259A      3.956662  
     260A      3.980674   261A      4.026222   262A      4.046245  
     263A      4.070996   264A      4.088814   265A      4.104305  
     266A      4.136033   267A      4.145561   268A      4.169847  
     269A      4.195499   270A      4.214303   271A      4.241521  
     272A      4.286415   273A      4.312696   274A      4.405032  
     275A      4.424831   276A      4.453316   277A      4.488541  
     278A      4.519584   279A      4.538518   280A      4.572432  
     281A      4.595815   282A      4.639381   283A      4.651161  
     284A      4.679354   285A      4.705344   286A      4.816038  
     287A      4.859422   288A      4.872615   289A      4.936273  
     290A      4.960812   291A      5.022416   292A      5.028839  
     293A      5.070065   294A      5.107940   295A     22.478435  
     296A     22.487657   297A     22.575035   298A     22.604642  
     299A     22.648657   300A     22.714395   301A     22.754434  

    Final Occupation by Irrep:
              A 
    DOCC [    28 ]

  @DF-RKS Final Energy:  -274.93624319405859

   => Energetics <=

    Nuclear Repulsion Energy =            332.4206266497789102
    One-Electron Energy =               -1027.9471491438482644
    Two-Electron Energy =                 453.2669112209767945
    DFT Exchange-Correlation Energy =     -32.6766319209660239
    Empirical Dispersion Energy =           0.0000000000000000
    VV10 Nonlocal Energy =                  0.0000000000000000
    Total Energy =                       -274.9362431940585907

Computation Completed


Properties will be evaluated at   0.000000,   0.000000,   0.000000 [a0]

Properties computed using the SCF density matrix

  Nuclear Dipole Moment: [e a0]
     X:     0.9985      Y:     0.2249      Z:     0.6766

  Electronic Dipole Moment: [e a0]
     X:    -1.0172      Y:    -0.2391      Z:    -0.7143

  Dipole Moment: [e a0]
     X:    -0.0187      Y:    -0.0142      Z:    -0.0377     Total:     0.0444

  Dipole Moment: [D]
     X:    -0.0475      Y:    -0.0360      Z:    -0.0959     Total:     0.1129


*** tstop() called on thinkpad at Sat Jul 10 13:50:02 2021
Module time:
	user time   =     130.82 seconds =       2.18 minutes
	system time =       2.15 seconds =       0.04 minutes
	total time  =         38 seconds =       0.63 minutes
Total time:
	user time   =     130.82 seconds =       2.18 minutes
	system time =       2.15 seconds =       0.04 minutes
	total time  =         38 seconds =       0.63 minutes

*** tstart() called on thinkpad
*** at Sat Jul 10 13:50:02 2021


         ------------------------------------------------------------
                                   SCF GRAD                          
                          Rob Parrish, Justin Turney,                
                       Andy Simmonett, and Alex Sokolov              
         ------------------------------------------------------------

  ==> Geometry <==

    Molecular point group: c1
    Full point group: C1

    Geometry (in Angstrom), charge = 0, multiplicity = 1:

       Center              X                  Y                   Z               Mass       
    ------------   -----------------  -----------------  -----------------  -----------------
         C            1.082386312815    -0.103597248624    -0.441687893588    12.000000000000
         C            0.269153754415    -1.261638121424     0.155476675912    12.000000000000
         C            0.202686572815     1.149545179276    -0.595264065688    12.000000000000
         C           -1.178724258585    -1.205231138224    -0.318202789188    12.000000000000
         C           -0.892693825285     1.185556611276     0.464304133412    12.000000000000
         C           -1.881175876085     0.032914530876     0.252839195912    12.000000000000
         C            2.308912917015     0.182298231976     0.421918721512    12.000000000000
         H            1.431528817015    -0.401005721024    -1.436861636488     1.007825032230
         H            0.288529255715    -1.204458914924     1.245610164612     1.007825032230
         H            0.722602732515    -2.212826591724    -0.130215296088     1.007825032230
         H           -0.265538464185     1.158742020876    -1.581511792188     1.007825032230
         H            0.824935870715     2.043360342776    -0.521088620788     1.007825032230
         H           -1.711109047385    -2.107692834624    -0.012230924688     1.007825032230
         H           -1.190110810685    -1.173665106924    -1.409570858788     1.007825032230
         H           -1.422485897785     2.139194566876     0.424328097212     1.007825032230
         H           -0.435080823085     1.109847769276     1.452107741612     1.007825032230
         H           -2.672982936985     0.344771687476    -0.431075797088     1.007825032230
         H           -2.353030342785    -0.214122516824     1.205956290912     1.007825032230
         H            2.893966049815    -0.724265130824     0.562832069412     1.007825032230
         H            2.944528723815     0.930499169176    -0.047079420388     1.007825032230
         H            2.009365123415     0.551567134676     1.400544568712     1.007825032230

  Nuclear repulsion =  332.420626649778910

  ==> Basis Set <==

  Basis Set: DEF2-TZVP
    Blend: DEF2-TZVP
    Number of shells: 133
    Number of basis function: 301
    Number of Cartesian functions: 336
    Spherical Harmonics?: true
    Max angular momentum: 3

  ==> DFJKGrad: Density-Fitted SCF Gradients <==

    Gradient:                    1
    J tasked:                  Yes
    K tasked:                  Yes
    wK tasked:                  No
    OpenMP threads:              4
    Integrals threads:           4
    Memory [MiB]:             5722
    Schwarz Cutoff:          0E+00
    Fitting Condition:       1E-10

   => Auxiliary Basis Set <=

  Basis Set: (DEF2-TZVP AUX)
    Blend: DEF2-TZVP-JKFIT
    Number of shells: 259
    Number of basis function: 777
    Number of Cartesian functions: 903
    Spherical Harmonics?: true
    Max angular momentum: 4

  ==> DFT Potential <==

   => Composite Functional: PBE0 <= 

    PBE0 Hyb-GGA Exchange-Correlation Functional

    C. Adamo and V. Barone, J. Chem. Phys. 110, 6158 (1999)
    M. Ernzerhof and G. E. Scuseria, J. Chem. Phys. 110, 5029 (1999)

    Deriv               =              1
    GGA                 =           TRUE
    Meta                =          FALSE

    Exchange Hybrid     =           TRUE
    MP2 Hybrid          =          FALSE

   => Exchange Functionals <=

    0.7500   Perdew, Burke & Ernzerhof

   => Exact (HF) Exchange <=

    0.2500               HF 

   => Correlation Functionals <=

    1.0000   Perdew, Burke & Ernzerhof

   => Molecular Quadrature <=

    Radial Scheme          =       TREUTLER
    Pruning Scheme         =           FLAT
    Nuclear Scheme         =       TREUTLER

    BS radius alpha        =              1
    Pruning alpha          =              1
    Radial Points          =             75
    Spherical Points       =            302
    Total Points           =         472047
    Total Blocks           =           3443
    Max Points             =            256
    Max Functions          =            291


  -Total Gradient:
     Atom            X                  Y                   Z
    ------   -----------------  -----------------  -----------------
       1       -0.001838938345    -0.001279525471    -0.005678768480
       2        0.002978538236    -0.000999544488     0.008801604148
       3        0.000607472197     0.001475346572    -0.004200543893
       4       -0.001569554202     0.000012669736    -0.005939070998
       5        0.001164398027     0.000526622498     0.006101723661
       6       -0.003799416241     0.000087411789     0.000811920575
       7        0.004774676385     0.001981869761     0.007180035951
       8        0.000382338719     0.000620439674     0.000069033957
       9       -0.001115677689     0.000745711552    -0.002810786518
      10       -0.001452547099     0.001285779575    -0.001750279224
      11        0.000294674192    -0.001380477425     0.002120749318
      12       -0.000811436432    -0.001596321609     0.001988214580
      13        0.001158385933     0.001236516011     0.001863240026
      14        0.000697476581     0.001184375565     0.001932351765
      15       -0.000149597361    -0.001244235065    -0.002139196658
      16       -0.000236106693    -0.001113330962    -0.002358229001
      17        0.002009774281    -0.000661151702    -0.000370216283
      18        0.001971328046     0.000414328771    -0.000501853224
      19       -0.002692540056     0.002211623786    -0.001652495337
      20       -0.002691188512    -0.002319397756     0.000371620667
      21        0.000350397033    -0.001195012559    -0.003823544636


*** tstop() called on thinkpad at Sat Jul 10 13:50:15 2021
Module time:
	user time   =      46.88 seconds =       0.78 minutes
	system time =       0.55 seconds =       0.01 minutes
	total time  =         13 seconds =       0.22 minutes
Total time:
	user time   =     177.71 seconds =       2.96 minutes
	system time =       2.70 seconds =       0.05 minutes
	total time  =         51 seconds =       0.85 minutes

			-----------------------------------------
			 OPTKING 2.0: for geometry optimizations 
			  - R.A. King,  Bethel University        
			-----------------------------------------

	Internal coordinates to be generated automatically.
	Detected frag 1 with atoms:  1 2 3 4 5 6 7 8 9 10 11 12 13 14 15 16 17 18 19 20
	 21
	---Fragment 1 Bond Connectivity---
	 1 : 2 3 7 8
	 2 : 1 4 9 10
	 3 : 1 5 11 12
	 4 : 2 6 13 14
	 5 : 3 6 15 16
	 6 : 4 5 17 18
	 7 : 1 19 20 21
	 8 : 1
	 9 : 2
	 10 : 2
	 11 : 3
	 12 : 3
	 13 : 4
	 14 : 4
	 15 : 5
	 16 : 5
	 17 : 6
	 18 : 6
	 19 : 7
	 20 : 7
	 21 : 7

	---Fragment 1 Geometry and Gradient---
	 C           2.0454136932       -0.1957704273       -0.8346691518
	 C           0.5086268815       -2.3841505189        0.2938083364
	 C           0.3830221119        2.1723255577       -1.1248860565
	 C          -2.2274660262       -2.2775567691       -0.6013161239
	 C          -1.6869468437        2.2403773015        0.8774076511
	 C          -3.5549071996        0.0621994489        0.4777968341
	 C           4.3632130607        0.3444937316        0.7973108309
	 H           2.7051974049       -0.7577909875       -2.7152749731
	 H           0.5452412725       -2.2760974786        2.3538620702
	 H           1.3655212620       -4.1816362215       -0.2460712470
	 H          -0.5017949731        2.1897050695       -2.9886241514
	 H           1.5589028667        3.8613914235       -0.9847147804
	 H          -3.2335274704       -3.9829622140       -0.0231130979
	 H          -2.2489834911       -2.2179056151       -2.6637028775
	 H          -2.6881087641        4.0424918605        0.8018638911
	 H          -0.8221835981        2.0973083249        2.7440859363
	 H          -5.0512056889        0.6515240651       -0.8146151958
	 H          -4.4465829128       -0.4046329141        2.2789271091
	 H           5.4688032505       -1.3686627395        1.0635984658
	 H           5.5643528566        1.7583885897       -0.0889672107
	 H           3.7971497693        1.0423108243        2.6466456614
	            -0.0018389383       -0.0012795255       -0.0056787685
	             0.0029785382       -0.0009995445        0.0088016041
	             0.0006074722        0.0014753466       -0.0042005439
	            -0.0015695542        0.0000126697       -0.0059390710
	             0.0011643980        0.0005266225        0.0061017237
	            -0.0037994162        0.0000874118        0.0008119206
	             0.0047746764        0.0019818698        0.0071800360
	             0.0003823387        0.0006204397        0.0000690340
	            -0.0011156777        0.0007457116       -0.0028107865
	            -0.0014525471        0.0012857796       -0.0017502792
	             0.0002946742       -0.0013804774        0.0021207493
	            -0.0008114364       -0.0015963216        0.0019882146
	             0.0011583859        0.0012365160        0.0018632400
	             0.0006974766        0.0011843756        0.0019323518
	            -0.0001495974       -0.0012442351       -0.0021391967
	            -0.0002361067       -0.0011133310       -0.0023582290
	             0.0020097743       -0.0006611517       -0.0003702163
	             0.0019713280        0.0004143288       -0.0005018532
	            -0.0026925401        0.0022116238       -0.0016524953
	            -0.0026911885       -0.0023193978        0.0003716207
	             0.0003503970       -0.0011950126       -0.0038235446

	Previous optimization step data not found.  Starting new optimization.

	---Fragment 1 Intrafragment Coordinates---
	 - Coordinate -           - BOHR/RAD -       - ANG/DEG -
	 R(1,2)           =         2.902444	       1.535907
	 R(1,3)           =         2.907860	       1.538773
	 R(1,7)           =         2.885730	       1.527063
	 R(1,8)           =         2.070715	       1.095775
	 R(2,4)           =         2.880766	       1.524436
	 R(2,9)           =         2.063210	       1.091804
	 R(2,10)          =         2.063175	       1.091785
	 R(3,5)           =         2.880726	       1.524415
	 R(3,11)          =         2.063183	       1.091789
	 R(3,12)          =         2.062835	       1.091605
	 R(4,6)           =         2.898455	       1.533797
	 R(4,13)          =         2.062738	       1.091554
	 R(4,14)          =         2.063361	       1.091884
	 R(5,6)           =         2.897141	       1.533101
	 R(5,15)          =         2.062922	       1.091652
	 R(5,16)          =         2.062225	       1.091282
	 R(6,17)          =         2.063139	       1.091766
	 R(6,18)          =         2.063271	       1.091836
	 R(7,19)          =         2.056245	       1.088118
	 R(7,20)          =         2.056046	       1.088013
	 R(7,21)          =         2.056068	       1.088024
	 B(1,2,4)         =         1.932834	     110.743224
	 B(1,2,9)         =         1.916995	     109.835720
	 B(1,2,10)        =         1.912652	     109.586874
	 B(1,3,5)         =         1.939771	     111.140694
	 B(1,3,11)        =         1.920044	     110.010423
	 B(1,3,12)        =         1.911506	     109.521251
	 B(1,7,19)        =         1.927421	     110.433068
	 B(1,7,20)        =         1.932846	     110.743934
	 B(1,7,21)        =         1.929523	     110.553530
	 B(2,1,3)         =         1.928505	     110.495217
	 B(2,1,7)         =         1.924690	     110.276628
	 B(2,1,8)         =         1.893544	     108.492059
	 B(2,4,6)         =         1.927478	     110.436375
	 B(2,4,13)        =         1.923617	     110.215155
	 B(2,4,14)        =         1.898164	     108.756809
	 B(3,1,7)         =         1.942445	     111.293926
	 B(3,1,8)         =         1.888669	     108.212785
	 B(3,5,6)         =         1.928009	     110.466789
	 B(3,5,15)        =         1.921873	     110.115184
	 B(3,5,16)        =         1.903079	     109.038404
	 B(4,2,9)         =         1.901984	     108.975649
	 B(4,2,10)        =         1.923460	     110.206113
	 B(4,6,5)         =         1.942260	     111.283287
	 B(4,6,17)        =         1.906585	     109.239276
	 B(4,6,18)        =         1.918014	     109.894135
	 B(5,3,11)        =         1.896014	     108.633581
	 B(5,3,12)        =         1.920935	     110.061443
	 B(5,6,17)        =         1.916928	     109.831881
	 B(5,6,18)        =         1.905347	     109.168323
	 B(6,4,13)        =         1.917362	     109.856732
	 B(6,4,14)        =         1.921988	     110.121814
	 B(6,5,15)        =         1.916463	     109.805239
	 B(6,5,16)        =         1.920974	     110.063697
	 B(7,1,8)         =         1.884422	     107.969413
	 B(9,2,10)        =         1.874997	     107.429393
	 B(11,3,12)       =         1.874387	     107.394465
	 B(13,4,14)       =         1.874432	     107.397043
	 B(15,5,16)       =         1.872619	     107.293164
	 B(17,6,18)       =         1.873436	     107.339977
	 B(19,7,20)       =         1.890885	     108.339730
	 B(19,7,21)       =         1.890530	     108.319385
	 B(20,7,21)       =         1.891424	     108.370589
	 D(1,2,4,6)       =        -1.166070	     -66.810874
	 D(1,2,4,13)      =         2.995381	     171.622666
	 D(1,2,4,14)      =         0.944861	      54.136546
	 D(1,3,5,6)       =        -1.151159	     -65.956535
	 D(1,3,5,15)      =         3.012225	     172.587789
	 D(1,3,5,16)      =         0.961999	      55.118485
	 D(2,1,3,5)       =         0.517707	      29.662431
	 D(2,1,3,11)      =        -1.582936	     -90.695563
	 D(2,1,3,12)      =         2.643928	     151.485896
	 D(2,1,7,19)      =         0.945069	      54.148491
	 D(2,1,7,20)      =         3.039646	     174.158883
	 D(2,1,7,21)      =        -1.146914	     -65.713307
	 D(2,4,6,5)       =         0.528185	      30.262788
	 D(2,4,6,17)      =         2.647689	     151.701431
	 D(2,4,6,18)      =        -1.584448	     -90.782155
	 D(3,1,2,4)       =         0.589500	      33.775849
	 D(3,1,2,9)       =        -1.512133	     -86.638820
	 D(3,1,2,10)      =         2.715112	     155.564474
	 D(3,1,7,19)      =         3.091785	     177.146246
	 D(3,1,7,20)      =        -1.096824	     -62.843363
	 D(3,1,7,21)      =         0.999802	      57.284448
	 D(3,5,6,4)       =         0.572343	      32.792856
	 D(3,5,6,17)      =        -1.541117	     -88.299487
	 D(3,5,6,18)      =         2.692379	     154.261981
	 D(4,2,1,7)       =         2.744339	     157.239021
	 D(4,2,1,8)       =        -1.478357	     -84.703645
	 D(4,6,5,15)      =         2.695345	     154.431885
	 D(4,6,5,16)      =        -1.530141	     -87.670619
	 D(5,3,1,7)       =        -1.626820	     -93.209927
	 D(5,3,1,8)       =         2.588534	     148.312097
	 D(5,6,4,13)      =         2.653618	     152.041114
	 D(5,6,4,14)      =        -1.568493	     -89.868038
	 D(6,4,2,9)       =         0.944479	      54.114676
	 D(6,4,2,10)      =         2.997860	     171.764709
	 D(6,5,3,11)      =         0.963640	      55.212491
	 D(6,5,3,12)      =         3.011307	     172.535163
	 D(7,1,2,9)       =         0.642706	      36.824351
	 D(7,1,2,10)      =        -1.413234	     -80.972354
	 D(7,1,3,11)      =         2.555722	     146.432078
	 D(7,1,3,12)      =         0.499400	      28.613538
	 D(8,1,2,9)       =         2.703195	     154.881686
	 D(8,1,2,10)      =         0.647255	      37.084980
	 D(8,1,3,11)      =         0.487891	      27.954103
	 D(8,1,3,12)      =        -1.568430	     -89.864438
	 D(8,1,7,19)      =        -1.121019	     -64.229660
	 D(8,1,7,20)      =         0.973557	      55.780731
	 D(8,1,7,21)      =         3.070183	     175.908542
	 D(9,2,4,13)      =        -1.177256	     -67.451783
	 D(9,2,4,14)      =         3.055410	     175.062096
	 D(10,2,4,13)     =         0.876125	      50.198250
	 D(10,2,4,14)     =        -1.174395	     -67.287871
	 D(11,3,5,15)     =        -1.156162	     -66.243185
	 D(11,3,5,16)     =         3.076797	     176.287511
	 D(12,3,5,15)     =         0.891505	      51.079487
	 D(12,3,5,16)     =        -1.158721	     -66.389816
	 D(13,4,6,17)     =        -1.510063	     -86.520243
	 D(13,4,6,18)     =         0.540985	      30.996171
	 D(14,4,6,17)     =         0.551011	      31.570604
	 D(14,4,6,18)     =         2.602059	     149.087019
	 D(15,5,6,17)     =         0.581885	      33.339542
	 D(15,5,6,18)     =        -1.467804	     -84.098990
	 D(16,5,6,17)     =         2.639584	     151.237038
	 D(16,5,6,18)     =         0.589895	      33.798506

	Current energy   :      -274.9362431941

	Generating empirical Hessian (Schlegel '84) for each fragment.
	Taking RFO optimization step.
	Going to follow RFO solution 1.
	Using RFO vector 1.
	Norm of target step-size    0.15012
	Projected energy change by RFO approximation:         0.0009673775

	Back-transformation to cartesian coordinates...
	Successfully converged to displaced geometry.

	--- Internal Coordinate Step in ANG or DEG, aJ/ANG or AJ/DEG ---
	 ---------------------------------------------------------------------------
	   Coordinate                Previous        Force       Change         New 
	   ----------                --------       ------       ------       ------
	    1 R(1,2)          =      1.535907     0.004167     0.000986     1.536893
	    2 R(1,3)          =      1.538773     0.015639     0.003168     1.541941
	    3 R(1,7)          =      1.527063    -0.008935    -0.001926     1.525137
	    4 R(1,8)          =      1.095775     0.000896     0.000168     1.095943
	    5 R(2,4)          =      1.524436    -0.001026    -0.000202     1.524234
	    6 R(2,9)          =      1.091804     0.022969     0.004251     1.096055
	    7 R(2,10)         =      1.091785     0.010433     0.001931     1.093716
	    8 R(3,5)          =      1.524415     0.000122    -0.000483     1.523931
	    9 R(3,11)         =      1.091789     0.016908     0.003129     1.094918
	   10 R(3,12)         =      1.091605     0.013472     0.002492     1.094097
	   11 R(4,6)          =      1.533797     0.011030     0.002987     1.536783
	   12 R(4,13)         =      1.091554     0.008771     0.001622     1.093176
	   13 R(4,14)         =      1.091884     0.015690     0.002904     1.094788
	   14 R(5,6)          =      1.533101     0.010529     0.002517     1.535618
	   15 R(5,15)         =      1.091652     0.007702     0.001425     1.093076
	   16 R(5,16)         =      1.091282     0.017773     0.003283     1.094566
	   17 R(6,17)         =      1.091766     0.011643     0.002154     1.093920
	   18 R(6,18)         =      1.091836     0.011397     0.002109     1.093946
	   19 R(7,19)         =      1.088118     0.028874     0.005279     1.093397
	   20 R(7,20)         =      1.088013     0.027417     0.005011     1.093023
	   21 R(7,21)         =      1.088024     0.032482     0.005937     1.093961
	   22 B(1,2,4)        =    110.743224     0.000069     0.714479   111.457703
	   23 B(1,2,9)        =    109.835720    -0.000062    -0.544617   109.291103
	   24 B(1,2,10)       =    109.586874     0.000002     0.187346   109.774220
	   25 B(1,3,5)        =    111.140694    -0.000009     0.294693   111.435387
	   26 B(1,3,11)       =    110.010423     0.000014    -0.006345   110.004077
	   27 B(1,3,12)       =    109.521251     0.000008     0.199559   109.720810
	   28 B(1,7,19)       =    110.433068     0.000138     0.671017   111.104085
	   29 B(1,7,20)       =    110.743934     0.000109     0.573425   111.317359
	   30 B(1,7,21)       =    110.553530     0.000026     0.030136   110.583666
	   31 B(2,1,3)        =    110.495217     0.000006     0.557161   111.052378
	   32 B(2,1,7)        =    110.276628     0.000059     0.578484   110.855112
	   33 B(2,1,8)        =    108.492059    -0.000058    -0.923312   107.568747
	   34 B(2,4,6)        =    110.436375    -0.000018     0.367602   110.803977
	   35 B(2,4,13)       =    110.215155     0.000057     0.656229   110.871384
	   36 B(2,4,14)       =    108.756809    -0.000000    -0.192276   108.564533
	   37 B(3,1,7)        =    111.293926     0.000010     0.550178   111.844104
	   38 B(3,1,8)        =    108.212785    -0.000002    -0.474136   107.738649
	   39 B(3,5,6)        =    110.466789     0.000009     0.338814   110.805602
	   40 B(3,5,15)       =    110.115184     0.000037     0.544379   110.659563
	   41 B(3,5,16)       =    109.038404     0.000004    -0.077138   108.961266
	   42 B(4,2,9)        =    108.975649     0.000015    -0.041072   108.934577
	   43 B(4,2,10)       =    110.206113     0.000033     0.743530   110.949643
	   44 B(4,6,5)        =    111.283287     0.000040     0.676880   111.960167
	   45 B(4,6,17)       =    109.239276     0.000032     0.283462   109.522738
	   46 B(4,6,18)       =    109.894135    -0.000024    -0.135800   109.758335
	   47 B(5,3,11)       =    108.633581     0.000004    -0.120499   108.513082
	   48 B(5,3,12)       =    110.061443     0.000055     0.644253   110.705696
	   49 B(5,6,17)       =    109.831881    -0.000027    -0.125347   109.706534
	   50 B(5,6,18)       =    109.168323     0.000031     0.230322   109.398645
	   51 B(6,4,13)       =    109.856732     0.000041     0.416162   110.272894
	   52 B(6,4,14)       =    110.121814    -0.000004    -0.173767   109.948047
	   53 B(6,5,15)       =    109.805239     0.000039     0.495508   110.300747
	   54 B(6,5,16)       =    110.063697    -0.000014    -0.202290   109.861407
	   55 B(7,1,8)        =    107.969413    -0.000019    -0.397352   107.572061
	   56 B(9,2,10)       =    107.429393    -0.000060    -1.146067   106.283326
	   57 B(11,3,12)      =    107.394465    -0.000074    -1.069335   106.325130
	   58 B(13,4,14)      =    107.397043    -0.000078    -1.134313   106.262730
	   59 B(15,5,16)      =    107.293164    -0.000076    -1.157692   106.135472
	   60 B(17,6,18)      =    107.339977    -0.000056    -1.004469   106.335508
	   61 B(19,7,20)      =    108.339730    -0.000102    -0.298185   108.041546
	   62 B(19,7,21)      =    108.319385    -0.000103    -0.611811   107.707573
	   63 B(20,7,21)      =    108.370589    -0.000078    -0.427503   107.943085
	   64 D(1,2,4,6)      =    -66.810874     0.000018     2.059212   -64.751662
	   65 D(1,2,4,13)     =    171.622666     0.000000     0.835966   172.458632
	   66 D(1,2,4,14)     =     54.136546     0.000014     1.948937    56.085483
	   67 D(1,3,5,6)      =    -65.956535     0.000011     1.350528   -64.606007
	   68 D(1,3,5,15)     =    172.587789    -0.000007     0.127147   172.714936
	   69 D(1,3,5,16)     =     55.118485     0.000008     1.262789    56.381274
	   70 D(2,1,3,5)      =     29.662431     0.000008     0.117728    29.780159
	   71 D(2,1,3,11)     =    -90.695563     0.000006     0.081489   -90.614074
	   72 D(2,1,3,12)     =    151.485896     0.000024     1.267207   152.753103
	   73 D(2,1,7,19)     =     54.148491    -0.000012    -1.330483    52.818008
	   74 D(2,1,7,20)     =    174.158883    -0.000005    -0.879044   173.279839
	   75 D(2,1,7,21)     =    -65.713307    -0.000007    -1.019984   -66.733291
	   76 D(2,4,6,5)      =     30.262788    -0.000006    -0.656411    29.606377
	   77 D(2,4,6,17)     =    151.701431    -0.000002    -0.175537   151.525894
	   78 D(2,4,6,18)     =    -90.782155    -0.000017    -1.304062   -92.086217
	   79 D(3,1,2,4)      =     33.775849    -0.000010    -1.336332    32.439517
	   80 D(3,1,2,9)      =    -86.638820    -0.000015    -1.384100   -88.022921
	   81 D(3,1,2,10)     =    155.564474     0.000010     0.211757   155.776231
	   82 D(3,1,7,19)     =    177.146246     0.000000     0.203120   177.349366
	   83 D(3,1,7,20)     =    -62.843363     0.000008     0.654560   -62.188803
	   84 D(3,1,7,21)     =     57.284448     0.000006     0.513619    57.798067
	   85 D(3,5,6,4)      =     32.792856    -0.000004    -0.705184    32.087672
	   86 D(3,5,6,17)     =    -88.299487    -0.000015    -1.426992   -89.726479
	   87 D(3,5,6,18)     =    154.261981    -0.000001    -0.275354   153.986627
	   88 D(4,2,1,7)      =    157.239021     0.000003     0.180134   157.419155
	   89 D(4,2,1,8)      =    -84.703645    -0.000002    -0.522415   -85.226060
	   90 D(4,6,5,15)     =    154.431885     0.000013     0.542929   154.974814
	   91 D(4,6,5,16)     =    -87.670619    -0.000004    -0.695207   -88.365826
	   92 D(5,3,1,7)      =    -93.209927    -0.000011    -1.431262   -94.641189
	   93 D(5,3,1,8)      =    148.312097    -0.000007    -0.969730   147.342368
	   94 D(5,6,4,13)     =    152.041114     0.000014     0.701355   152.742469
	   95 D(5,6,4,14)     =    -89.868038    -0.000002    -0.539757   -90.407796
	   96 D(6,4,2,9)      =     54.114676     0.000012     1.805282    55.919959
	   97 D(6,4,2,10)     =    171.764709     0.000002     0.818671   172.583380
	   98 D(6,5,3,11)     =     55.212491     0.000014     1.448573    56.661063
	   99 D(6,5,3,12)     =    172.535163     0.000001     0.450951   172.986115
	  100 D(7,1,2,9)      =     36.824351    -0.000002     0.132366    36.956717
	  101 D(7,1,2,10)     =    -80.972354     0.000023     1.728223   -79.244131
	  102 D(7,1,3,11)     =    146.432078    -0.000013    -1.467500   144.964578
	  103 D(7,1,3,12)     =     28.613538     0.000004    -0.281783    28.331754
	  104 D(8,1,2,9)      =    154.881686    -0.000008    -0.570184   154.311502
	  105 D(8,1,2,10)     =     37.084980     0.000017     1.025673    38.110654
	  106 D(8,1,3,11)     =     27.954103    -0.000009    -1.005968    26.948135
	  107 D(8,1,3,12)     =    -89.864438     0.000008     0.179749   -89.684688
	  108 D(8,1,7,19)     =    -64.229660    -0.000001    -0.305088   -64.534748
	  109 D(8,1,7,20)     =     55.780731     0.000006     0.146352    55.927083
	  110 D(8,1,7,21)     =    175.908542     0.000004     0.005411   175.913953
	  111 D(9,2,4,13)     =    -67.451783    -0.000006     0.582036   -66.869747
	  112 D(9,2,4,14)     =    175.062096     0.000009     1.695007   176.757104
	  113 D(10,2,4,13)    =     50.198250    -0.000016    -0.404575    49.793675
	  114 D(10,2,4,14)    =    -67.287871    -0.000002     0.708396   -66.579475
	  115 D(11,3,5,15)    =    -66.243185    -0.000004     0.225192   -66.017994
	  116 D(11,3,5,16)    =    176.287511     0.000012     1.360834   177.648345
	  117 D(12,3,5,15)    =     51.079487    -0.000017    -0.772430    50.307057
	  118 D(12,3,5,16)    =    -66.389816    -0.000001     0.363212   -66.026604
	  119 D(13,4,6,17)    =    -86.520243     0.000018     1.182229   -85.338014
	  120 D(13,4,6,18)    =     30.996171     0.000003     0.053704    31.049875
	  121 D(14,4,6,17)    =     31.570604     0.000001    -0.058883    31.511721
	  122 D(14,4,6,18)    =    149.087019    -0.000013    -1.187408   147.899610
	  123 D(15,5,6,17)    =     33.339542     0.000002    -0.178879    33.160663
	  124 D(15,5,6,18)    =    -84.098990     0.000017     0.972759   -83.126231
	  125 D(16,5,6,17)    =    151.237038    -0.000016    -1.417016   149.820023
	  126 D(16,5,6,18)    =     33.798506    -0.000001    -0.265378    33.533129
	 ---------------------------------------------------------------------------
	Successfully symmetrized geometry.

  ==> Convergence Check <==

  Measures of convergence in internal coordinates in au.
  Criteria marked as inactive (o), active & met (*), and active & unmet ( ).
  --------------------------------------------------------------------------------------------- ~
   Step     Total Energy     Delta E     MAX Force     RMS Force      MAX Disp      RMS Disp    ~
  --------------------------------------------------------------------------------------------- ~
    Convergence Criteria    1.00e-06 *    3.00e-04 *             o    1.20e-03 *             o  ~
  --------------------------------------------------------------------------------------------- ~
      1    -274.93624319   -2.75e+02      3.94e-03      9.78e-04 o    3.59e-02      1.34e-02 o  ~
  ---------------------------------------------------------------------------------------------

	Writing optimization data to binary file.
	Structure for next step:
	Cartesian Geometry (in Angstrom)
	    C     1.0851157130  -0.0972524317  -0.4254529229
	    C     0.2706647287  -1.2684596736   0.1463714086
	    C     0.2079897794   1.1605463556  -0.5872424027
	    C    -1.1810422583  -1.2160069463  -0.3152395455
	    C    -0.9087417710   1.1978251271   0.4490431733
	    C    -1.8857082296   0.0315961325   0.2403103874
	    C     2.3172419896   0.1764254484   0.4307052042
	    H     1.4334189771  -0.3918777321  -1.4219326643
	    H     0.2973909760  -1.2276038192   1.2413382618
	    H     0.7369856726  -2.2164483246  -0.1366078075
	    H    -0.2428289777   1.1770106689  -1.5849084034
	    H     0.8313466187   2.0569197307  -0.5166123678
	    H    -1.7180828149  -2.1196001670  -0.0150071862
	    H    -1.1983425068  -1.1984806030  -1.4097507871
	    H    -1.4418139884   2.1511967528   0.4074233258
	    H    -0.4679277838   1.1392007177   1.4492035666
	    H    -2.6830025229   0.3362554685  -0.4439165397
	    H    -2.3712250870  -0.2101423819   1.1903381260
	    H     2.9055477201  -0.7336414892   0.5762769535
	    H     2.9635424251   0.9269970119  -0.0315046460
	    H     2.0251351831   0.5453340733   1.4182934278
			--------------------------
			 OPTKING Finished Execution 
			--------------------------

    Structure for next step:
    Molecular point group: c1
    Full point group: C1

    Geometry (in Angstrom), charge = 0, multiplicity = 1:

    C            1.085678789617    -0.097793132470    -0.425353357504
    C            0.271227802157    -1.269000378990     0.146470976289
    C            0.208552852563     1.160005659802    -0.587142837909
    C           -1.180479190563    -1.216547651410    -0.315139979665
    C           -0.908178702200     1.197284431396     0.449142742180
    C           -1.885145164636     0.031055432215     0.240409955425
    C            2.317805071081     0.175884748685     0.430804773032
    H            1.433982055079    -0.392418434043    -1.421833102818
    H            0.297954049471    -1.228144524437     1.241437833784
    H            0.737548747863    -2.216989033666    -0.136508240944
    H           -0.242265906298     1.176469973202    -1.584808842520
    H            0.831909694352     2.056379038397    -0.516512802770
    H           -1.717519749269    -2.120140875708    -0.014907619185
    H           -1.197779439126    -1.199021308057    -1.409651225544
    H           -1.441250921675     2.150656060835     0.407522894463
    H           -0.467364713286     1.138660021778     1.449303139431
    H           -2.682439461089     0.335714769420    -0.443816974321
    H           -2.370662023933    -0.210683083113     1.190437697759
    H            2.906110803844    -0.734182192425     0.576376522828
    H            2.964105509125     0.926456315163    -0.031405079044
    H            2.025698263427     0.544793375027     1.418393000521

gradient() will perform analytic gradient computation.

*** tstart() called on thinkpad
*** at Sat Jul 10 13:50:15 2021

   => Loading Basis Set <=

    Name: DEF2-TZVP
    Role: ORBITAL
    Keyword: BASIS
    atoms 1-7  entry C          line   123 file /usr/share/psi4/basis/def2-tzvp.gbs 
    atoms 8-21 entry H          line    15 file /usr/share/psi4/basis/def2-tzvp.gbs 


         ---------------------------------------------------------
                                   SCF
               by Justin Turney, Rob Parrish, Andy Simmonett
                          and Daniel G. A. Smith
                              RKS Reference
                        4 Threads,   7629 MiB Core
         ---------------------------------------------------------

  ==> Geometry <==

    Molecular point group: c1
    Full point group: C1

    Geometry (in Angstrom), charge = 0, multiplicity = 1:

       Center              X                  Y                   Z               Mass       
    ------------   -----------------  -----------------  -----------------  -----------------
         C            1.085678789617    -0.097793132470    -0.425353357504    12.000000000000
         C            0.271227802157    -1.269000378990     0.146470976289    12.000000000000
         C            0.208552852563     1.160005659802    -0.587142837909    12.000000000000
         C           -1.180479190563    -1.216547651410    -0.315139979665    12.000000000000
         C           -0.908178702200     1.197284431396     0.449142742180    12.000000000000
         C           -1.885145164636     0.031055432215     0.240409955425    12.000000000000
         C            2.317805071081     0.175884748685     0.430804773032    12.000000000000
         H            1.433982055079    -0.392418434043    -1.421833102818     1.007825032230
         H            0.297954049471    -1.228144524437     1.241437833784     1.007825032230
         H            0.737548747863    -2.216989033666    -0.136508240944     1.007825032230
         H           -0.242265906298     1.176469973202    -1.584808842520     1.007825032230
         H            0.831909694352     2.056379038397    -0.516512802770     1.007825032230
         H           -1.717519749269    -2.120140875708    -0.014907619185     1.007825032230
         H           -1.197779439126    -1.199021308057    -1.409651225544     1.007825032230
         H           -1.441250921675     2.150656060835     0.407522894463     1.007825032230
         H           -0.467364713286     1.138660021778     1.449303139431     1.007825032230
         H           -2.682439461089     0.335714769420    -0.443816974321     1.007825032230
         H           -2.370662023933    -0.210683083113     1.190437697759     1.007825032230
         H            2.906110803844    -0.734182192425     0.576376522828     1.007825032230
         H            2.964105509125     0.926456315163    -0.031405079044     1.007825032230
         H            2.025698263427     0.544793375027     1.418393000521     1.007825032230

  Running in c1 symmetry.

  Rotational constants: A =      0.13570  B =      0.07588  C =      0.05792 [cm^-1]
  Rotational constants: A =   4068.19035  B =   2274.84081  C =   1736.47002 [MHz]
  Nuclear repulsion =  331.366927501609268

  Charge       = 0
  Multiplicity = 1
  Electrons    = 56
  Nalpha       = 28
  Nbeta        = 28

  ==> Algorithm <==

  SCF Algorithm Type is DF.
  DIIS enabled.
  MOM disabled.
  Fractional occupation disabled.
  Guess Type is READ.
  Energy threshold   = 1.00e-08
  Density threshold  = 1.00e-08
  Integral threshold = 0.00e+00

  ==> Primary Basis <==

  Basis Set: DEF2-TZVP
    Blend: DEF2-TZVP
    Number of shells: 133
    Number of basis function: 301
    Number of Cartesian functions: 336
    Spherical Harmonics?: true
    Max angular momentum: 3

  ==> DFT Potential <==

   => Composite Functional: PBE0 <= 

    PBE0 Hyb-GGA Exchange-Correlation Functional

    C. Adamo and V. Barone, J. Chem. Phys. 110, 6158 (1999)
    M. Ernzerhof and G. E. Scuseria, J. Chem. Phys. 110, 5029 (1999)

    Deriv               =              1
    GGA                 =           TRUE
    Meta                =          FALSE

    Exchange Hybrid     =           TRUE
    MP2 Hybrid          =          FALSE

   => Exchange Functionals <=

    0.7500   Perdew, Burke & Ernzerhof

   => Exact (HF) Exchange <=

    0.2500               HF 

   => Correlation Functionals <=

    1.0000   Perdew, Burke & Ernzerhof

   => Molecular Quadrature <=

    Radial Scheme          =       TREUTLER
    Pruning Scheme         =           FLAT
    Nuclear Scheme         =       TREUTLER

    BS radius alpha        =              1
    Pruning alpha          =              1
    Radial Points          =             75
    Spherical Points       =            302
    Total Points           =         472056
    Total Blocks           =           3448
    Max Points             =            256
    Max Functions          =            291

   => Loading Basis Set <=

    Name: (DEF2-TZVP AUX)
    Role: JKFIT
    Keyword: DF_BASIS_SCF
    atoms 1-7  entry C          line   203 file /usr/share/psi4/basis/def2-tzvp-jkfit.gbs 
    atoms 8-21 entry H          line    23 file /usr/share/psi4/basis/def2-tzvp-jkfit.gbs 

   => Loading Basis Set <=

    Name: DEF2-TZVP
    Role: ORBITAL
    Keyword: BASIS
    atoms 1-7  entry C          line   123 file /usr/share/psi4/basis/def2-tzvp.gbs 
    atoms 8-21 entry H          line    15 file /usr/share/psi4/basis/def2-tzvp.gbs 

  Reading orbitals from file 180, no projection.

  ==> Pre-Iterations <==

   -------------------------------------------------------
    Irrep   Nso     Nmo     Nalpha   Nbeta   Ndocc  Nsocc
   -------------------------------------------------------
     A        301     301       0       0       0       0
   -------------------------------------------------------
    Total     301     301      28      28      28       0
   -------------------------------------------------------

  ==> Integral Setup <==

  DFHelper Memory: AOs need 0.536 GiB; user supplied 2.602 GiB. Using in-core AOs.

  ==> MemDFJK: Density-Fitted J/K Matrices <==

    J tasked:                   Yes
    K tasked:                   Yes
    wK tasked:                   No
    OpenMP threads:               4
    Memory [MiB]:              2664
    Algorithm:                 Core
    Schwarz Cutoff:           1E-12
    Mask sparsity (%):       2.6159
    Fitting Condition:        1E-10

   => Auxiliary Basis Set <=

  Basis Set: (DEF2-TZVP AUX)
    Blend: DEF2-TZVP-JKFIT
    Number of shells: 259
    Number of basis function: 777
    Number of Cartesian functions: 903
    Spherical Harmonics?: true
    Max angular momentum: 4

  Cached 100.0% of DFT collocation blocks in 2.986 [GiB].

  Minimum eigenvalue in the overlap matrix is 4.8944298352E-05.
  Using Symmetric Orthogonalization.

  SCF Guess: Orbitals guess was supplied from a previous computation.

  ==> Iterations <==

                           Total Energy        Delta E     RMS |[F,P]|

   @DF-RKS iter   0:  -274.92655431095471   -2.74927e+02   1.49680e-04 
   @DF-RKS iter   1:  -274.93673065554901   -1.01763e-02   1.34218e-05 DIIS
   @DF-RKS iter   2:  -274.93673895354340   -8.29799e-06   9.37112e-06 DIIS
   @DF-RKS iter   3:  -274.93674273209592   -3.77855e-06   3.45027e-06 DIIS
   @DF-RKS iter   4:  -274.93674322849324   -4.96397e-07   7.31514e-07 DIIS
   @DF-RKS iter   5:  -274.93674325180490   -2.33117e-08   2.43764e-07 DIIS
   @DF-RKS iter   6:  -274.93674325436410   -2.55920e-09   7.15595e-08 DIIS
   @DF-RKS iter   7:  -274.93674325457840   -2.14300e-10   1.31470e-08 DIIS
   @DF-RKS iter   8:  -274.93674325458562   -7.21911e-12   3.76107e-09 DIIS
  Energy and wave function converged.


  ==> Post-Iterations <==

    Orbital Energies [Eh]
    ---------------------

    Doubly Occupied:                                                      

       1A    -10.217543     2A    -10.209275     3A    -10.209043  
       4A    -10.208873     5A    -10.207787     6A    -10.207656  
       7A    -10.202708     8A     -0.858183     9A     -0.781135  
      10A     -0.756983    11A     -0.691182    12A     -0.633251  
      13A     -0.600856    14A     -0.533407    15A     -0.501406  
      16A     -0.487026    17A     -0.449197    18A     -0.425572  
      19A     -0.409380    20A     -0.399532    21A     -0.382513  
      22A     -0.368086    23A     -0.362880    24A     -0.356769  
      25A     -0.344058    26A     -0.305625    27A     -0.303299  
      28A     -0.300969  

    Virtual:                                                              

      29A      0.038968    30A      0.059706    31A      0.068557  
      32A      0.084377    33A      0.099798    34A      0.102738  
      35A      0.108494    36A      0.114379    37A      0.123851  
      38A      0.126060    39A      0.137352    40A      0.145854  
      41A      0.158041    42A      0.163689    43A      0.184317  
      44A      0.188880    45A      0.203476    46A      0.216199  
      47A      0.221884    48A      0.233395    49A      0.242296  
      50A      0.247108    51A      0.251517    52A      0.265027  
      53A      0.273782    54A      0.281477    55A      0.300932  
      56A      0.319025    57A      0.322057    58A      0.346913  
      59A      0.371397    60A      0.390128    61A      0.408035  
      62A      0.414186    63A      0.416673    64A      0.423847  
      65A      0.427056    66A      0.432386    67A      0.434925  
      68A      0.441848    69A      0.454049    70A      0.457410  
      71A      0.460379    72A      0.468958    73A      0.470615  
      74A      0.474852    75A      0.485262    76A      0.489352  
      77A      0.498233    78A      0.509252    79A      0.520801  
      80A      0.531190    81A      0.536725    82A      0.550991  
      83A      0.580923    84A      0.609846    85A      0.627665  
      86A      0.646247    87A      0.663342    88A      0.672576  
      89A      0.687311    90A      0.712715    91A      0.779222  
      92A      0.801233    93A      0.820019    94A      0.830586  
      95A      0.839143    96A      0.856281    97A      0.887452  
      98A      0.908015    99A      0.917378   100A      0.934041  
     101A      0.957085   102A      0.962109   103A      0.976471  
     104A      0.998385   105A      1.032631   106A      1.034560  
     107A      1.043100   108A      1.066055   109A      1.103434  
     110A      1.107070   111A      1.130192   112A      1.153763  
     113A      1.159968   114A      1.180925   115A      1.195129  
     116A      1.206962   117A      1.237166   118A      1.241454  
     119A      1.252512   120A      1.266333   121A      1.279481  
     122A      1.292377   123A      1.315111   124A      1.360581  
     125A      1.442007   126A      1.448650   127A      1.515164  
     128A      1.529901   129A      1.536785   130A      1.568158  
     131A      1.575534   132A      1.586417   133A      1.606144  
     134A      1.616389   135A      1.630006   136A      1.637010  
     137A      1.643039   138A      1.652315   139A      1.669552  
     140A      1.684815   141A      1.703969   142A      1.715554  
     143A      1.736102   144A      1.754815   145A      1.775097  
     146A      1.793768   147A      1.805495   148A      1.839187  
     149A      1.876895   150A      1.890931   151A      1.902913  
     152A      1.923750   153A      1.941530   154A      1.958277  
     155A      1.973441   156A      1.980062   157A      2.018676  
     158A      2.021258   159A      2.057401   160A      2.082498  
     161A      2.089405   162A      2.111422   163A      2.127995  
     164A      2.183897   165A      2.190159   166A      2.244634  
     167A      2.267595   168A      2.295368   169A      2.316963  
     170A      2.347830   171A      2.367170   172A      2.370549  
     173A      2.395955   174A      2.410143   175A      2.430526  
     176A      2.446250   177A      2.453405   178A      2.474361  
     179A      2.485080   180A      2.503391   181A      2.540166  
     182A      2.559287   183A      2.566895   184A      2.583009  
     185A      2.594857   186A      2.601572   187A      2.618225  
     188A      2.623823   189A      2.650974   190A      2.653587  
     191A      2.679304   192A      2.689585   193A      2.696025  
     194A      2.711402   195A      2.715554   196A      2.729998  
     197A      2.736945   198A      2.764257   199A      2.787672  
     200A      2.801301   201A      2.823198   202A      2.828112  
     203A      2.846276   204A      2.865211   205A      2.869229  
     206A      2.889980   207A      2.897211   208A      2.952781  
     209A      2.997941   210A      3.005985   211A      3.031129  
     212A      3.066159   213A      3.086803   214A      3.095922  
     215A      3.122814   216A      3.151396   217A      3.165698  
     218A      3.176794   219A      3.182583   220A      3.189646  
     221A      3.210259   222A      3.227023   223A      3.253115  
     224A      3.268817   225A      3.287407   226A      3.292876  
     227A      3.323991   228A      3.340753   229A      3.358375  
     230A      3.380420   231A      3.384088   232A      3.395255  
     233A      3.404666   234A      3.412346   235A      3.440671  
     236A      3.450062   237A      3.474302   238A      3.509126  
     239A      3.522384   240A      3.527993   241A      3.539964  
     242A      3.574203   243A      3.590629   244A      3.597514  
     245A      3.625624   246A      3.646036   247A      3.663841  
     248A      3.674498   249A      3.699343   250A      3.726094  
     251A      3.780987   252A      3.817421   253A      3.835950  
     254A      3.843500   255A      3.880400   256A      3.902092  
     257A      3.927652   258A      3.947286   259A      3.953217  
     260A      3.977954   261A      4.019972   262A      4.043428  
     263A      4.070743   264A      4.083728   265A      4.095219  
     266A      4.125591   267A      4.139798   268A      4.163871  
     269A      4.193316   270A      4.208341   271A      4.234622  
     272A      4.275349   273A      4.294433   274A      4.397490  
     275A      4.415120   276A      4.448632   277A      4.472201  
     278A      4.502989   279A      4.526977   280A      4.558425  
     281A      4.591910   282A      4.629029   283A      4.640894  
     284A      4.679965   285A      4.709255   286A      4.810384  
     287A      4.855077   288A      4.887639   289A      4.933615  
     290A      4.956430   291A      5.019645   292A      5.028619  
     293A      5.070167   294A      5.109388   295A     22.463984  
     296A     22.466932   297A     22.565168   298A     22.590312  
     299A     22.636830   300A     22.705694   301A     22.749946  

    Final Occupation by Irrep:
              A 
    DOCC [    28 ]

  @DF-RKS Final Energy:  -274.93674325458562

   => Energetics <=

    Nuclear Repulsion Energy =            331.3669275016092683
    One-Electron Energy =               -1025.8526479483955427
    Two-Electron Energy =                 452.2096616005123337
    DFT Exchange-Correlation Energy =     -32.6606844083117664
    Empirical Dispersion Energy =           0.0000000000000000
    VV10 Nonlocal Energy =                  0.0000000000000000
    Total Energy =                       -274.9367432545856218

Computation Completed


Properties will be evaluated at   0.000000,   0.000000,   0.000000 [a0]

Properties computed using the SCF density matrix

  Nuclear Dipole Moment: [e a0]
     X:     1.0106      Y:     0.2133      Z:     0.6788

  Electronic Dipole Moment: [e a0]
     X:    -1.0301      Y:    -0.2261      Z:    -0.7172

  Dipole Moment: [e a0]
     X:    -0.0195      Y:    -0.0128      Z:    -0.0384     Total:     0.0449

  Dipole Moment: [D]
     X:    -0.0495      Y:    -0.0325      Z:    -0.0977     Total:     0.1142


*** tstop() called on thinkpad at Sat Jul 10 13:50:44 2021
Module time:
	user time   =     101.59 seconds =       1.69 minutes
	system time =       0.74 seconds =       0.01 minutes
	total time  =         29 seconds =       0.48 minutes
Total time:
	user time   =     280.17 seconds =       4.67 minutes
	system time =       3.47 seconds =       0.06 minutes
	total time  =         80 seconds =       1.33 minutes

*** tstart() called on thinkpad
*** at Sat Jul 10 13:50:44 2021


         ------------------------------------------------------------
                                   SCF GRAD                          
                          Rob Parrish, Justin Turney,                
                       Andy Simmonett, and Alex Sokolov              
         ------------------------------------------------------------

  ==> Geometry <==

    Molecular point group: c1
    Full point group: C1

    Geometry (in Angstrom), charge = 0, multiplicity = 1:

       Center              X                  Y                   Z               Mass       
    ------------   -----------------  -----------------  -----------------  -----------------
         C            1.085678789617    -0.097793132470    -0.425353357504    12.000000000000
         C            0.271227802157    -1.269000378990     0.146470976289    12.000000000000
         C            0.208552852563     1.160005659802    -0.587142837909    12.000000000000
         C           -1.180479190563    -1.216547651410    -0.315139979665    12.000000000000
         C           -0.908178702200     1.197284431396     0.449142742180    12.000000000000
         C           -1.885145164636     0.031055432215     0.240409955425    12.000000000000
         C            2.317805071081     0.175884748685     0.430804773032    12.000000000000
         H            1.433982055079    -0.392418434043    -1.421833102818     1.007825032230
         H            0.297954049471    -1.228144524437     1.241437833784     1.007825032230
         H            0.737548747863    -2.216989033666    -0.136508240944     1.007825032230
         H           -0.242265906298     1.176469973202    -1.584808842520     1.007825032230
         H            0.831909694352     2.056379038397    -0.516512802770     1.007825032230
         H           -1.717519749269    -2.120140875708    -0.014907619185     1.007825032230
         H           -1.197779439126    -1.199021308057    -1.409651225544     1.007825032230
         H           -1.441250921675     2.150656060835     0.407522894463     1.007825032230
         H           -0.467364713286     1.138660021778     1.449303139431     1.007825032230
         H           -2.682439461089     0.335714769420    -0.443816974321     1.007825032230
         H           -2.370662023933    -0.210683083113     1.190437697759     1.007825032230
         H            2.906110803844    -0.734182192425     0.576376522828     1.007825032230
         H            2.964105509125     0.926456315163    -0.031405079044     1.007825032230
         H            2.025698263427     0.544793375027     1.418393000521     1.007825032230

  Nuclear repulsion =  331.366927501609268

  ==> Basis Set <==

  Basis Set: DEF2-TZVP
    Blend: DEF2-TZVP
    Number of shells: 133
    Number of basis function: 301
    Number of Cartesian functions: 336
    Spherical Harmonics?: true
    Max angular momentum: 3

  ==> DFJKGrad: Density-Fitted SCF Gradients <==

    Gradient:                    1
    J tasked:                  Yes
    K tasked:                  Yes
    wK tasked:                  No
    OpenMP threads:              4
    Integrals threads:           4
    Memory [MiB]:             5722
    Schwarz Cutoff:          0E+00
    Fitting Condition:       1E-10

   => Auxiliary Basis Set <=

  Basis Set: (DEF2-TZVP AUX)
    Blend: DEF2-TZVP-JKFIT
    Number of shells: 259
    Number of basis function: 777
    Number of Cartesian functions: 903
    Spherical Harmonics?: true
    Max angular momentum: 4

  ==> DFT Potential <==

   => Composite Functional: PBE0 <= 

    PBE0 Hyb-GGA Exchange-Correlation Functional

    C. Adamo and V. Barone, J. Chem. Phys. 110, 6158 (1999)
    M. Ernzerhof and G. E. Scuseria, J. Chem. Phys. 110, 5029 (1999)

    Deriv               =              1
    GGA                 =           TRUE
    Meta                =          FALSE

    Exchange Hybrid     =           TRUE
    MP2 Hybrid          =          FALSE

   => Exchange Functionals <=

    0.7500   Perdew, Burke & Ernzerhof

   => Exact (HF) Exchange <=

    0.2500               HF 

   => Correlation Functionals <=

    1.0000   Perdew, Burke & Ernzerhof

   => Molecular Quadrature <=

    Radial Scheme          =       TREUTLER
    Pruning Scheme         =           FLAT
    Nuclear Scheme         =       TREUTLER

    BS radius alpha        =              1
    Pruning alpha          =              1
    Radial Points          =             75
    Spherical Points       =            302
    Total Points           =         472056
    Total Blocks           =           3448
    Max Points             =            256
    Max Functions          =            291


  -Total Gradient:
     Atom            X                  Y                   Z
    ------   -----------------  -----------------  -----------------
       1       -0.001228451888    -0.000045812426    -0.000319187232
       2        0.001768591435    -0.001418666497     0.000892088885
       3        0.000965536417     0.001089525716    -0.001463558054
       4       -0.001563014500    -0.001326341862    -0.000970332980
       5       -0.000576401361     0.001309475040     0.001306906445
       6       -0.001235607184     0.000018018546     0.000220964065
       7        0.002279592320     0.000456053295     0.001578296758
       8        0.000067292106    -0.000062591260     0.000514941087
       9       -0.000139610255     0.000286420570    -0.000896120657
      10       -0.000193692352    -0.000006333595    -0.000255557507
      11       -0.000240362553    -0.000070736408     0.000499170382
      12       -0.000085508625    -0.000055911766     0.000210797201
      13        0.000012675441    -0.000045314911     0.000147691523
      14        0.000276604965     0.000196437958     0.000617072478
      15        0.000116410775     0.000010976428    -0.000268004490
      16       -0.000081594924    -0.000172808848    -0.000645661848
      17        0.000290493427     0.000139831890     0.000045127920
      18        0.000243170592    -0.000104020703    -0.000126153285
      19       -0.000200570950    -0.000041825310    -0.000256740213
      20       -0.000082154745    -0.000035044126    -0.000179262577
      21       -0.000350802983    -0.000127379993    -0.000636365556


*** tstop() called on thinkpad at Sat Jul 10 13:50:58 2021
Module time:
	user time   =      47.39 seconds =       0.79 minutes
	system time =       0.43 seconds =       0.01 minutes
	total time  =         14 seconds =       0.23 minutes
Total time:
	user time   =     327.57 seconds =       5.46 minutes
	system time =       3.90 seconds =       0.07 minutes
	total time  =         94 seconds =       1.57 minutes

			-----------------------------------------
			 OPTKING 2.0: for geometry optimizations 
			  - R.A. King,  Bethel University        
			-----------------------------------------

	Previous internal coordinate definitions found.
	---Fragment 1 Geometry and Gradient---
	 C           2.0516355726       -0.1848022373       -0.8038013522
	 C           0.5125462637       -2.3980631694        0.2767900305
	 C           0.3941077740        2.1920930010       -1.1095391602
	 C          -2.2307823670       -2.2989418797       -0.5955282527
	 C          -1.7162090201        2.2625396696        0.8487567740
	 C          -3.5624080679        0.0586862616        0.4543089736
	 C           4.3800167965        0.3323740047        0.8141030346
	 H           2.7098333529       -0.7415633669       -2.6868751604
	 H           0.5630515515       -2.3208567937        2.3459775076
	 H           1.3937651376       -4.1895020968       -0.2579631893
	 H          -0.4578162124        2.2232060442       -2.9948546736
	 H           1.5720814834        3.8859931927       -0.9760677375
	 H          -3.2456419412       -4.0064856025       -0.0281713174
	 H          -2.2634750987       -2.2658218908       -2.6638547487
	 H          -2.7235695200        4.0641509450        0.7701066604
	 H          -0.8831913088        2.1517555912        2.7387860063
	 H          -5.0690759296        0.6344089705       -0.8386925313
	 H          -4.4799019613       -0.3981333263        2.2496012182
	 H           5.4917535095       -1.3874032699        1.0891937733
	 H           5.6013476192        1.7507487029       -0.0593469983
	 H           3.8280149307        1.0295102738        2.6803743093
	            -0.0012284519       -0.0000458124       -0.0003191872
	             0.0017685914       -0.0014186665        0.0008920889
	             0.0009655364        0.0010895257       -0.0014635581
	            -0.0015630145       -0.0013263419       -0.0009703330
	            -0.0005764014        0.0013094750        0.0013069064
	            -0.0012356072        0.0000180185        0.0002209641
	             0.0022795923        0.0004560533        0.0015782968
	             0.0000672921       -0.0000625913        0.0005149411
	            -0.0001396103        0.0002864206       -0.0008961207
	            -0.0001936924       -0.0000063336       -0.0002555575
	            -0.0002403626       -0.0000707364        0.0004991704
	            -0.0000855086       -0.0000559118        0.0002107972
	             0.0000126754       -0.0000453149        0.0001476915
	             0.0002766050        0.0001964380        0.0006170725
	             0.0001164108        0.0000109764       -0.0002680045
	            -0.0000815949       -0.0001728088       -0.0006456618
	             0.0002904934        0.0001398319        0.0000451279
	             0.0002431706       -0.0001040207       -0.0001261533
	            -0.0002005710       -0.0000418253       -0.0002567402
	            -0.0000821547       -0.0000350441       -0.0001792626
	            -0.0003508030       -0.0001273800       -0.0006363656

	---Fragment 1 Intrafragment Coordinates---
	 - Coordinate -           - BOHR/RAD -       - ANG/DEG -
	 R(1,2)           =         2.904307	       1.536893
	 R(1,3)           =         2.913847	       1.541941
	 R(1,7)           =         2.882090	       1.525137
	 R(1,8)           =         2.071032	       1.095943
	 R(2,4)           =         2.880385	       1.524234
	 R(2,9)           =         2.071243	       1.096055
	 R(2,10)          =         2.066824	       1.093716
	 R(3,5)           =         2.879813	       1.523931
	 R(3,11)          =         2.069096	       1.094918
	 R(3,12)          =         2.067543	       1.094097
	 R(4,6)           =         2.904100	       1.536783
	 R(4,13)          =         2.065802	       1.093176
	 R(4,14)          =         2.068850	       1.094788
	 R(5,6)           =         2.901898	       1.535618
	 R(5,15)          =         2.065615	       1.093076
	 R(5,16)          =         2.068430	       1.094566
	 R(6,17)          =         2.067210	       1.093920
	 R(6,18)          =         2.067257	       1.093946
	 R(7,19)          =         2.066221	       1.093397
	 R(7,20)          =         2.065515	       1.093023
	 R(7,21)          =         2.067287	       1.093961
	 B(1,2,4)         =         1.945304	     111.457703
	 B(1,2,9)         =         1.907490	     109.291103
	 B(1,2,10)        =         1.915922	     109.774220
	 B(1,3,5)         =         1.944914	     111.435387
	 B(1,3,11)        =         1.919933	     110.004077
	 B(1,3,12)        =         1.914989	     109.720810
	 B(1,7,19)        =         1.939132	     111.104085
	 B(1,7,20)        =         1.942854	     111.317359
	 B(1,7,21)        =         1.930049	     110.583666
	 B(2,1,3)         =         1.938230	     111.052378
	 B(2,1,7)         =         1.934787	     110.855112
	 B(2,1,8)         =         1.877429	     107.568747
	 B(2,4,6)         =         1.933894	     110.803977
	 B(2,4,13)        =         1.935071	     110.871384
	 B(2,4,14)        =         1.894809	     108.564533
	 B(3,1,7)         =         1.952048	     111.844104
	 B(3,1,8)         =         1.880394	     107.738649
	 B(3,5,6)         =         1.933923	     110.805602
	 B(3,5,15)        =         1.931374	     110.659563
	 B(3,5,16)        =         1.901733	     108.961266
	 B(4,2,9)         =         1.901267	     108.934577
	 B(4,2,10)        =         1.936437	     110.949643
	 B(4,6,5)         =         1.954074	     111.960167
	 B(4,6,17)        =         1.911532	     109.522738
	 B(4,6,18)        =         1.915644	     109.758335
	 B(5,3,11)        =         1.893911	     108.513082
	 B(5,3,12)        =         1.932179	     110.705696
	 B(5,6,17)        =         1.914740	     109.706534
	 B(5,6,18)        =         1.909367	     109.398645
	 B(6,4,13)        =         1.924625	     110.272894
[...]
	 B(9,2,10)        =         1.850077	     106.001623
	 B(11,3,12)       =         1.851810	     106.100921
	 B(13,4,14)       =         1.850897	     106.048606
	 B(15,5,16)       =         1.848471	     105.909569
	 B(17,6,18)       =         1.853476	     106.196377
	 B(19,7,20)       =         1.883314	     107.905972
	 B(19,7,21)       =         1.875218	     107.442050
	 B(20,7,21)       =         1.880500	     107.744716
	 D(1,2,4,6)       =        -1.139053	     -65.262956
	 D(1,2,4,13)      =         3.001258	     171.959422
	 D(1,2,4,14)      =         0.972420	      55.715559
	 D(1,3,5,6)       =        -1.131716	     -64.842524
	 D(1,3,5,15)      =         3.009721	     172.444334
	 D(1,3,5,16)      =         0.981721	      56.248485
	 D(2,1,3,5)       =         0.513049	      29.395561
	 D(2,1,3,11)      =        -1.591818	     -91.204476
	 D(2,1,3,12)      =         2.661304	     152.481491
	 D(2,1,7,19)      =         0.928374	      53.191925
	 D(2,1,7,20)      =         3.031553	     173.695165
	 D(2,1,7,21)      =        -1.157325	     -66.309851
	 D(2,4,6,5)       =         0.514036	      29.452094
	 D(2,4,6,17)      =         2.643174	     151.442712
	 D(2,4,6,18)      =        -1.610088	     -92.251276
	 D(3,1,2,4)       =         0.578037	      33.119064
	 D(3,1,2,9)       =        -1.527479	     -87.518097
	 D(3,1,2,10)      =         2.733063	     156.593001
	 D(3,1,7,19)      =         3.095263	     177.345534
	 D(3,1,7,20)      =        -1.084744	     -62.151225
	 D(3,1,7,21)      =         1.009564	      57.843759
	 D(3,5,6,4)       =         0.567511	      32.515986
	 D(3,5,6,17)      =        -1.558769	     -89.310911
	 D(3,5,6,18)      =         2.696094	     154.474798
	 D(4,2,1,7)       =         2.755400	     157.872784
	 D(4,2,1,8)       =        -1.473760	     -84.440250
	 D(4,6,5,15)      =         2.714586	     155.534334
	 D(4,6,5,16)      =        -1.537064	     -88.067284
	 D(5,3,1,7)       =        -1.654338	     -94.786586
	 D(5,3,1,8)       =         2.564311	     146.924181
	 D(5,6,4,13)      =         2.663553	     152.610328
	 D(5,6,4,14)      =        -1.584055	     -90.759658
	 D(6,4,2,9)       =         0.969940	      55.573492
	 D(6,4,2,10)      =         3.002956	     172.056699
	 D(6,5,3,11)      =         0.985802	      56.482302
	 D(6,5,3,12)      =         3.014226	     172.702419
	 D(7,1,2,9)       =         0.649884	      37.235623
	 D(7,1,2,10)      =        -1.372759	     -78.653279
	 D(7,1,3,11)      =         2.523980	     144.613377
	 D(7,1,3,12)      =         0.493917	      28.299344
	 D(8,1,2,9)       =         2.703909	     154.922589
	 D(8,1,2,10)      =         0.681266	      39.033687
	 D(8,1,3,11)      =         0.459443	      26.324144
	 D(8,1,3,12)      =        -1.570620	     -89.989889
	 D(8,1,7,19)      =        -1.124240	     -64.414209
	 D(8,1,7,20)      =         0.978938	      56.089031
	 D(8,1,7,21)      =         3.073246	     176.084015
	 D(9,2,4,13)      =        -1.172933	     -67.204130
	 D(9,2,4,14)      =         3.081414	     176.552008
	 D(10,2,4,13)     =         0.860082	      49.279077
	 D(10,2,4,14)     =        -1.168756	     -66.964785
	 D(11,3,5,15)     =        -1.155946	     -66.230840
	 D(11,3,5,16)     =         3.099239	     177.573311
	 D(12,3,5,15)     =         0.872477	      49.989277
	 D(12,3,5,16)     =        -1.155523	     -66.206572
	 D(13,4,6,17)     =        -1.490495	     -85.399054
	 D(13,4,6,18)     =         0.539428	      30.906959
	 D(14,4,6,17)     =         0.545083	      31.230960
	 D(14,4,6,18)     =         2.575006	     147.536973
	 D(15,5,6,17)     =         0.588306	      33.707437
	 D(15,5,6,18)     =        -1.440016	     -82.506854
	 D(16,5,6,17)     =         2.619841	     150.105819
	 D(16,5,6,18)     =         0.591519	      33.891528

	Current energy   :      -274.9367913142

	Energy change for the previous step:
		Projected    :         0.0000008677
		Actual       :        -0.0000035603

	Performing BFGS update.
	Previous computed or guess Hessian on step 1.
	Steps to be used in Hessian update: 4 3
	Taking RFO optimization step.
	Going to follow RFO solution 1.
	Using RFO vector 1.
	Norm of target step-size    0.00278
	Projected energy change by RFO approximation:        -0.0000000864

	Back-transformation to cartesian coordinates...
	Could not converge backtransformation.
	Using first guess instead.

	--- Internal Coordinate Step in ANG or DEG, aJ/ANG or AJ/DEG ---
	 ---------------------------------------------------------------------------
	   Coordinate                Previous        Force       Change         New 
	   ----------                --------       ------       ------       ------
	    1 R(1,2)          =      1.535494     0.000099     0.000023     1.535516
	    2 R(1,3)          =      1.541100     0.000249     0.000070     1.541170
	    3 R(1,7)          =      1.521371    -0.000072    -0.000018     1.521352
	    4 R(1,8)          =      1.096589    -0.000043    -0.000010     1.096580
	    5 R(2,4)          =      1.520891     0.000154     0.000030     1.520921
	    6 R(2,9)          =      1.097522    -0.000043    -0.000014     1.097508
	    7 R(2,10)         =      1.093958     0.000009     0.000002     1.093960
	    8 R(3,5)          =      1.521577     0.000336     0.000075     1.521652
	    9 R(3,11)         =      1.095570    -0.000014    -0.000006     1.095564
	   10 R(3,12)         =      1.094366    -0.000004    -0.000002     1.094364
	   11 R(4,6)          =      1.534877     0.000261     0.000050     1.534927
	   12 R(4,13)         =      1.093227     0.000012     0.000003     1.093229
	   13 R(4,14)         =      1.095859    -0.000016    -0.000007     1.095852
	   14 R(5,6)          =      1.533446     0.000058     0.000010     1.533456
	   15 R(5,15)         =      1.093272     0.000046     0.000008     1.093281
	   16 R(5,16)         =      1.095613    -0.000009    -0.000006     1.095608
	   17 R(6,17)         =      1.094331    -0.000032    -0.000008     1.094324
	   18 R(6,18)         =      1.094347    -0.000020    -0.000005     1.094341
	   19 R(7,19)         =      1.093734     0.000131     0.000019     1.093753
	   20 R(7,20)         =      1.093168     0.000090     0.000012     1.093180
	   21 R(7,21)         =      1.094903     0.000091     0.000010     1.094913
	   22 B(1,2,4)        =    111.406950     0.000000    -0.001568   111.405382
	   23 B(1,2,9)        =    109.388552    -0.000000    -0.004083   109.384468
	   24 B(1,2,10)       =    109.723946    -0.000001    -0.005413   109.718533
	   25 B(1,3,5)        =    111.444540    -0.000000     0.000715   111.445255
	   26 B(1,3,11)       =    109.944041    -0.000001    -0.005806   109.938236
	   27 B(1,3,12)       =    109.700170    -0.000001    -0.009775   109.690396
	   28 B(1,7,19)       =    111.283367     0.000000     0.002076   111.285443
	   29 B(1,7,20)       =    111.451667     0.000000     0.001218   111.452885
	   30 B(1,7,21)       =    110.836449     0.000001     0.002822   110.839271
	   31 B(2,1,3)        =    110.780627    -0.000000    -0.002751   110.777876
	   32 B(2,1,7)        =    110.831604    -0.000000     0.000897   110.832501
	   33 B(2,1,8)        =    107.674044    -0.000000    -0.003034   107.671010
	   34 B(2,4,6)        =    110.726051     0.000000     0.000382   110.726433
	   35 B(2,4,13)       =    110.930496    -0.000000    -0.000427   110.930070
	   36 B(2,4,14)       =    108.727307     0.000000     0.002245   108.729552
	   37 B(3,1,7)        =    111.836183     0.000000    -0.000745   111.835437
	   38 B(3,1,8)        =    107.724209    -0.000000    -0.001359   107.722849
	   39 B(3,5,6)        =    110.768405     0.000000     0.003051   110.771456
	   40 B(3,5,15)       =    110.798493     0.000000     0.002822   110.801315
	   41 B(3,5,16)       =    109.057016     0.000000     0.002612   109.059628
	   42 B(4,2,9)        =    109.048617     0.000000     0.006172   109.054790
	   43 B(4,2,10)       =    111.112415     0.000000     0.001266   111.113681
	   44 B(4,6,5)        =    111.785842    -0.000000    -0.004106   111.781737
	   45 B(4,6,17)       =    109.553102     0.000000     0.000997   109.554099
	   46 B(4,6,18)       =    109.877892     0.000000     0.000678   109.878570
	   47 B(5,3,11)       =    108.704001     0.000001     0.008363   108.712365
	   48 B(5,3,12)       =    110.800925     0.000001     0.002997   110.803922
	   49 B(5,6,17)       =    109.837886    -0.000000    -0.002391   109.835496
	   50 B(5,6,18)       =    109.433939     0.000000     0.001050   109.434989
	   51 B(6,4,13)       =    110.273790    -0.000000    -0.002175   110.271614
	   52 B(6,4,14)       =    110.016710    -0.000000    -0.001390   110.015320
	   53 B(6,5,15)       =    110.272081    -0.000000    -0.003380   110.268700
	   54 B(6,5,16)       =    109.913684    -0.000001    -0.005534   109.908150
	   55 B(7,1,8)        =    107.806396     0.000000     0.007119   107.813515
	   56 B(9,2,10)       =    106.001623     0.000000     0.003882   106.005505
	   57 B(11,3,12)      =    106.100921     0.000000     0.003728   106.104649
	   58 B(13,4,14)      =    106.048606     0.000000     0.001447   106.050053
	   59 B(15,5,16)      =    105.909569     0.000000     0.000256   105.909825
	   60 B(17,6,18)      =    106.196377     0.000000     0.004195   106.200573
	   61 B(19,7,20)      =    107.905972    -0.000000    -0.003059   107.902913
	   62 B(19,7,21)      =    107.442050    -0.000000    -0.000842   107.441208
	   63 B(20,7,21)      =    107.744716    -0.000000    -0.002569   107.742147
	   64 D(1,2,4,6)      =    -65.262956    -0.000000    -0.010590   -65.273546
	   65 D(1,2,4,13)     =    171.959422    -0.000000    -0.007781   171.951640
	   66 D(1,2,4,14)     =     55.715559    -0.000000    -0.010624    55.704935
	   67 D(1,3,5,6)      =    -64.842524    -0.000000     0.002252   -64.840272
	   68 D(1,3,5,15)     =    172.444334     0.000000     0.002482   172.446816
	   69 D(1,3,5,16)     =     56.248485    -0.000000    -0.000993    56.247492
	   70 D(2,1,3,5)      =     29.395561    -0.000000     0.002925    29.398487
	   71 D(2,1,3,11)     =    -91.204476    -0.000000    -0.004165   -91.208641
	   72 D(2,1,3,12)     =    152.481491     0.000000     0.000367   152.481858
	   73 D(2,1,7,19)     =     53.191925     0.000000     0.050098    53.242023
	   74 D(2,1,7,20)     =    173.695165     0.000000     0.048457   173.743623
	   75 D(2,1,7,21)     =    -66.309851     0.000000     0.047922   -66.261929
	   76 D(2,4,6,5)      =     29.452094     0.000000     0.015838    29.467931
	   77 D(2,4,6,17)     =    151.442712    -0.000000     0.010755   151.453467
	   78 D(2,4,6,18)     =    -92.251276     0.000000     0.016793   -92.234482
	   79 D(3,1,2,4)      =     33.119064    -0.000000    -0.002357    33.116707
	   80 D(3,1,2,9)      =    -87.518097    -0.000000    -0.006361   -87.524458
	   81 D(3,1,2,10)     =    156.593001    -0.000000    -0.005649   156.587352
	   82 D(3,1,7,19)     =    177.345534     0.000000     0.046637   177.392171
	   83 D(3,1,7,20)     =    -62.151225    -0.000000     0.044996   -62.106229
	   84 D(3,1,7,21)     =     57.843759    -0.000000     0.044460    57.888219
	   85 D(3,5,6,4)      =     32.515986    -0.000000    -0.013061    32.502925
	   86 D(3,5,6,17)     =    -89.310911     0.000000    -0.009906   -89.320817
	   87 D(3,5,6,18)     =    154.474798    -0.000000    -0.014209   154.460590
	   88 D(4,2,1,7)      =    157.872784    -0.000000    -0.004668   157.868117
	   89 D(4,2,1,8)      =    -84.440250     0.000000     0.002619   -84.437632
	   90 D(4,6,5,15)     =    155.534334     0.000000    -0.009718   155.524616
	   91 D(4,6,5,16)     =    -88.067284    -0.000000    -0.014669   -88.081953
	   92 D(5,3,1,7)      =    -94.786586     0.000000     0.004343   -94.782243
	   93 D(5,3,1,8)      =    146.924181    -0.000000    -0.003078   146.921103
	   94 D(5,6,4,13)     =    152.610328     0.000000     0.014050   152.624378
	   95 D(5,6,4,14)     =    -90.759658    -0.000000     0.013697   -90.745962
	   96 D(6,4,2,9)      =     55.573492    -0.000000    -0.012594    55.560898
	   97 D(6,4,2,10)     =    172.056699     0.000000    -0.003409   172.053290
	   98 D(6,5,3,11)     =     56.482302    -0.000000     0.001029    56.483331
	   99 D(6,5,3,12)     =    172.702419     0.000000     0.012167   172.714586
	  100 D(7,1,2,9)      =     37.235623    -0.000000    -0.008672    37.226951
	  101 D(7,1,2,10)     =    -78.653279    -0.000000    -0.007959   -78.661238
	  102 D(7,1,3,11)     =    144.613377    -0.000000    -0.002747   144.610630
	  103 D(7,1,3,12)     =     28.299344     0.000000     0.001785    28.301129
	  104 D(8,1,2,9)      =    154.922589    -0.000000    -0.001386   154.921203
	  105 D(8,1,2,10)     =     39.033687     0.000000    -0.000673    39.033013
	  106 D(8,1,3,11)     =     26.324144    -0.000000    -0.010169    26.313975
	  107 D(8,1,3,12)     =    -89.989889    -0.000000    -0.005636   -89.995526
	  108 D(8,1,7,19)     =    -64.414209     0.000000     0.049007   -64.365202
	  109 D(8,1,7,20)     =     56.089031     0.000000     0.047367    56.136398
	  110 D(8,1,7,21)     =    176.084015    -0.000000     0.046831   176.130846
	  111 D(9,2,4,13)     =    -67.204130    -0.000000    -0.009786   -67.213916
	  112 D(9,2,4,14)     =    176.552008    -0.000000    -0.012629   176.539379
	  113 D(10,2,4,13)    =     49.279077     0.000000    -0.000601    49.278477
	  114 D(10,2,4,14)    =    -66.964785     0.000000    -0.003444   -66.968229
	  115 D(11,3,5,15)    =    -66.230840    -0.000000     0.001258   -66.229581
	  116 D(11,3,5,16)    =    177.573311    -0.000000    -0.002217   177.571095
	  117 D(12,3,5,15)    =     49.989277     0.000000     0.012396    50.001673
	  118 D(12,3,5,16)    =    -66.206572     0.000000     0.008922   -66.197651
	  119 D(13,4,6,17)    =    -85.399054    -0.000000     0.008967   -85.390087
	  120 D(13,4,6,18)    =     30.906959     0.000000     0.015006    30.921964
	  121 D(14,4,6,17)    =     31.230960    -0.000000     0.008614    31.239574
	  122 D(14,4,6,18)    =    147.536973    -0.000000     0.014652   147.551625
	  123 D(15,5,6,17)    =     33.707437     0.000000    -0.006563    33.700874
	  124 D(15,5,6,18)    =    -82.506854     0.000000    -0.010865   -82.517719
	  125 D(16,5,6,17)    =    150.105819    -0.000000    -0.011514   150.094305
	  126 D(16,5,6,18)    =     33.891528    -0.000000    -0.015816    33.875712
	 ---------------------------------------------------------------------------
	Successfully symmetrized geometry.

  ==> Convergence Check <==

  Measures of convergence in internal coordinates in au.
  Criteria marked as inactive (o), active & met (*), and active & unmet ( ).
  ---------------------------------------------------------------------------------------------
   Step     Total Energy     Delta E     MAX Force     RMS Force      MAX Disp      RMS Disp   
  ---------------------------------------------------------------------------------------------
    Convergence Criteria    1.00e-06 *    3.00e-04 *             o    1.20e-03 *             o
  ---------------------------------------------------------------------------------------------
      5    -274.93679131   -3.56e-06      4.08e-05 *    7.44e-06 o    8.74e-04 *    2.48e-04 o  ~
  ---------------------------------------------------------------------------------------------


  **** Optimization is complete! (in 5 steps) ****

  ==> Optimization Summary <==

  Measures of convergence in internal coordinates in au.
  --------------------------------------------------------------------------------------------------------------- ~
   Step         Total Energy             Delta E       MAX Force       RMS Force        MAX Disp        RMS Disp  ~
  --------------------------------------------------------------------------------------------------------------- ~
      1    -274.936243194059   -274.936243194059      0.00394261      0.00097838      0.03594003      0.01336468  ~
      2    -274.936743254586     -0.000500060527      0.00164890      0.00034537      0.02252381      0.00838797  ~
      3    -274.936789167416     -0.000045912831      0.00042055      0.00009374      0.01407855      0.00695205  ~
      4    -274.936787753872      0.000001413545      0.00043540      0.00007461      0.00698377      0.00323957  ~
      5    -274.936791314153     -0.000003560281      0.00004075      0.00000744      0.00087438      0.00024796  ~
  --------------------------------------------------------------------------------------------------------------- ~

	Writing optimization data to binary file.
	Final energy is   -274.9367913141531
	Final (previous) structure:
	Cartesian Geometry (in Angstrom)
	    C     1.0849717366  -0.0978338619  -0.4265807435
	    C     0.2694975280  -1.2634507210   0.1514153233
	    C     0.2068846128   1.1588582715  -0.5836659329
	    C    -1.1770215756  -1.2143891340  -0.3157936938
	    C    -0.9070775445   1.1921777779   0.4522756089
	    C    -1.8845387709   0.0303796342   0.2372136729
	    C     2.3165101692   0.1750473077   0.4239593417
	    H     1.4263579710  -0.3935956183  -1.4258247825
	    H     0.2936194961  -1.2166856349   1.2476755870
	    H     0.7393513144  -2.2132620890  -0.1203180858
	    H    -0.2418950561   1.1786545667  -1.5829053479
	    H     0.8301887895   2.0555998197  -0.5130801748
	    H    -1.7143066533  -2.1189046615  -0.0186055586
	    H    -1.1925509005  -1.1989900062  -1.4114341819
	    H    -1.4396638573   2.1463757338   0.4190733700
	    H    -0.4665683135   1.1287819291   1.4534257086
	    H    -2.6790260058   0.3359463316  -0.4505217681
	    H    -2.3768203334  -0.2113353400   1.1842235708
	    H     2.9084484513  -0.7332476902   0.5684002053
	    H     2.9621001337   0.9271917255  -0.0370268309
	    H     2.0315935788   0.5422097516   1.4153354838
	Saving final (previous) structure.
			--------------------------
			 OPTKING Finished Execution 
			--------------------------

    Final optimized geometry and variables:
    Molecular point group: c1
    Full point group: C1

    Geometry (in Angstrom), charge = 0, multiplicity = 1:

    C            1.084971740855    -0.097833862292    -0.426580745212
    C            0.269497529012    -1.263450725955     0.151415323869
    C            0.206884613597     1.158858276098    -0.583665935237
    C           -1.177021580262    -1.214389138756    -0.315793695072
    C           -0.907077548069     1.192177782562     0.452275610653
    C           -1.884538778282     0.030379634288     0.237213673807
    C            2.316510178314     0.175047308430     0.423959343376
    H            1.426357976595    -0.393595619870    -1.425824788128
    H            0.293619497281    -1.216685639682     1.247675591954
    H            0.739351317276    -2.213262097652    -0.120318086271
    H           -0.241895057079     1.178654571290    -1.582905354147
    H            0.830188792807     2.055599827814    -0.513080176860
    H           -1.714306660072    -2.118904669781    -0.018605558705
    H           -1.192550905174    -1.198990010955    -1.411434187420
    H           -1.439663862950     2.146375742242     0.419073371652
    H           -0.466568315362     1.128781933573     1.453425714333
    H           -2.679026016312     0.335946332909    -0.450521769872
    H           -2.376820342724    -0.211335340828     1.184223575408
    H            2.908448462772    -0.733247693045     0.568400207556
    H            2.962100145352     0.927191729125    -0.037026831084
    H            2.031593586828     0.542209753732     1.415335489336

	Removing binary optimization data file.
	Cleaning optimization helper files.

    Psi4 stopped on: Saturday, 10 July 2021 01:52PM
    Psi4 wall time for execution: 0:03:32.65

*** Psi4 exiting successfully. Buy a developer a beer!
