
    -----------------------------------------------------------------------
          Psi4: An Open-Source Ab Initio Electronic Structure Package
                               Psi4 1.3.2 release

                         Git: Rev {} zzzzzzz 


    R. M. Parrish, L. A. Burns, D. G. A. Smith, A. C. Simmonett,
    A. E. DePrince III, E. G. Hohenstein, U. Bozkaya, A. Yu. Sokolov,
    R. Di Remigio, R. M. Richard, J. F. Gonthier, A. M. James,
    H. R. McAlexander, A. Kumar, M. Saitow, X. Wang, B. P. Pritchard,
    P. Verma, H. F. Schaefer III, K. Patkowski, R. A. King, E. F. Valeev,
    F. A. Evangelista, J. M. Turney, T. D. Crawford, and C. D. Sherrill,
    J. Chem. Theory Comput. 13(7) pp 3185--3197 (2017).
    (doi: 10.1021/acs.jctc.7b00174)


                         Additional Contributions by
    P. Kraus, H. Kruse, M. H. Lechner, M. C. Schieber, R. A. Shaw,
    A. Alenaizan, R. Galvelis, Z. L. Glick, S. Lehtola, and J. P. Misiewicz

    -----------------------------------------------------------------------


    Psi4 started on: Saturday, 10 July 2021 12:47PM

    Process ID: 1181920
    Host:       thinkpad
    PSIDATADIR: /usr/share/psi4
    Memory:     500.0 MiB
    Threads:    4
    
  ==> Input File <==

--------------------------------------------------------------------------
memory 8 gb

molecule {
0 1
 C          1.0138209743        0.0000504938       -0.3320143257
 C          0.3011766819       -1.2490459958        0.1880687301
 C          0.3011705532        1.2491334547        0.1881225711
 C         -1.1681795797       -1.2518490761       -0.2231999547
 C         -1.1681646702        1.2518017380       -0.2232353354
 C         -1.8704369468       -0.0000107259        0.2931516386
 C          2.4834462973       -0.0000526508        0.0793244864
 H          0.9578296121        0.0001317793       -1.4269643433
 H          0.3719502854       -1.2738045338        1.2783433519
 H          0.7954821386       -2.1434306899       -0.1983308514
 H          0.7955120205        2.1435500894       -0.1982165735
 H          0.3719418465        1.2737371458        1.2784081110
 H         -1.6613232246       -2.1444573858        0.1682458589
 H         -1.2389521557       -1.2820854090       -1.3132456880
 H         -1.2389247893        1.2821507899       -1.3132924946
 H         -1.6613748878        2.1443291541        0.1682793278
 H         -2.9152913775       -0.0000182176       -0.0249822935
 H         -1.8531032928       -0.0000579011        1.3856452460
 H          2.9894549975        0.8826673032       -0.3058691699
 H          2.5743314259       -0.0008035829        1.1637849282
 H          2.9895575018       -0.8822331319       -0.3068953206
}

set basis def2-tzvp
optimize('pbe0')
--------------------------------------------------------------------------

  Memory set to   7.451 GiB by Python driver.
gradient() will perform analytic gradient computation.

*** tstart() called on thinkpad
*** at Sat Jul 10 12:47:31 2021

   => Loading Basis Set <=

    Name: DEF2-TZVP
    Role: ORBITAL
    Keyword: BASIS
    atoms 1-7  entry C          line   123 file /usr/share/psi4/basis/def2-tzvp.gbs 
    atoms 8-21 entry H          line    15 file /usr/share/psi4/basis/def2-tzvp.gbs 


         ---------------------------------------------------------
                                   SCF
               by Justin Turney, Rob Parrish, Andy Simmonett
                          and Daniel G. A. Smith
                              RKS Reference
                        4 Threads,   7629 MiB Core
         ---------------------------------------------------------

  ==> Geometry <==

    Molecular point group: c1
    Full point group: C1

    Geometry (in Angstrom), charge = 0, multiplicity = 1:

       Center              X                  Y                   Z               Mass       
    ------------   -----------------  -----------------  -----------------  -----------------
         C            1.013809934684     0.000050496607    -0.332017393665    12.000000000000
         C            0.301165642284    -1.249045992993     0.188065662135    12.000000000000
         C            0.301159513584     1.249133457507     0.188119503135    12.000000000000
         C           -1.168190619316    -1.251849073293    -0.223203022665    12.000000000000
         C           -1.168175709816     1.251801740807    -0.223238403365    12.000000000000
         C           -1.870447986416    -0.000010723093     0.293148570635    12.000000000000
         C            2.483435257684    -0.000052647993     0.079321418435    12.000000000000
         H            0.957818572484     0.000131782107    -1.426967411265     1.007825032230
         H            0.371939245784    -1.273804530993     1.278340283935     1.007825032230
         H            0.795471098984    -2.143430687093    -0.198333919365     1.007825032230
         H            0.795500980884     2.143550092207    -0.198219641465     1.007825032230
         H            0.371930806884     1.273737148607     1.278405043035     1.007825032230
         H           -1.661334264216    -2.144457382993     0.168242790935     1.007825032230
         H           -1.238963195316    -1.282085406193    -1.313248755965     1.007825032230
         H           -1.238935828916     1.282150792707    -1.313295562565     1.007825032230
         H           -1.661385927416     2.144329156907     0.168276259835     1.007825032230
         H           -2.915302417116    -0.000018214793    -0.024985361465     1.007825032230
         H           -1.853114332416    -0.000057898293     1.385642178035     1.007825032230
         H            2.989443957884     0.882667306007    -0.305872237865     1.007825032230
         H            2.574320386284    -0.000803580093     1.163781860235     1.007825032230
         H            2.989546462184    -0.882233129093    -0.306898388565     1.007825032230

  Running in c1 symmetry.

  Rotational constants: A =      0.14206  B =      0.07393  C =      0.05388 [cm^-1]
  Rotational constants: A =   4258.99862  B =   2216.24892  C =   1615.41156 [MHz]
  Nuclear repulsion =  330.546613414296871

  Charge       = 0
  Multiplicity = 1
  Electrons    = 56
  Nalpha       = 28
  Nbeta        = 28

  ==> Algorithm <==

  SCF Algorithm Type is DF.
  DIIS enabled.
  MOM disabled.
  Fractional occupation disabled.
  Guess Type is SAD.
  Energy threshold   = 1.00e-08
  Density threshold  = 1.00e-08
  Integral threshold = 0.00e+00

  ==> Primary Basis <==

  Basis Set: DEF2-TZVP
    Blend: DEF2-TZVP
    Number of shells: 133
    Number of basis function: 301
    Number of Cartesian functions: 336
    Spherical Harmonics?: true
    Max angular momentum: 3

  ==> DFT Potential <==

   => Composite Functional: PBE0 <= 

    PBE0 Hyb-GGA Exchange-Correlation Functional

    C. Adamo and V. Barone, J. Chem. Phys. 110, 6158 (1999)
    M. Ernzerhof and G. E. Scuseria, J. Chem. Phys. 110, 5029 (1999)

    Deriv               =              1
    GGA                 =           TRUE
    Meta                =          FALSE

    Exchange Hybrid     =           TRUE
    MP2 Hybrid          =          FALSE

   => Exchange Functionals <=

    0.7500   Perdew, Burke & Ernzerhof

   => Exact (HF) Exchange <=

    0.2500               HF 

   => Correlation Functionals <=

    1.0000   Perdew, Burke & Ernzerhof

   => Molecular Quadrature <=

    Radial Scheme          =       TREUTLER
    Pruning Scheme         =           FLAT
    Nuclear Scheme         =       TREUTLER

    BS radius alpha        =              1
    Pruning alpha          =              1
    Radial Points          =             75
    Spherical Points       =            302
    Total Points           =         472038
    Total Blocks           =           3451
    Max Points             =            256
    Max Functions          =            291

   => Loading Basis Set <=

    Name: (DEF2-TZVP AUX)
    Role: JKFIT
    Keyword: DF_BASIS_SCF
    atoms 1-7  entry C          line   203 file /usr/share/psi4/basis/def2-tzvp-jkfit.gbs 
    atoms 8-21 entry H          line    23 file /usr/share/psi4/basis/def2-tzvp-jkfit.gbs 

  ==> Pre-Iterations <==

   -------------------------------------------------------
    Irrep   Nso     Nmo     Nalpha   Nbeta   Ndocc  Nsocc
   -------------------------------------------------------
     A        301     301       0       0       0       0
   -------------------------------------------------------
    Total     301     301      28      28      28       0
   -------------------------------------------------------

  ==> Integral Setup <==

  DFHelper Memory: AOs need 0.533 GiB; user supplied 2.607 GiB. Using in-core AOs.

  ==> MemDFJK: Density-Fitted J/K Matrices <==

    J tasked:                   Yes
    K tasked:                   Yes
    wK tasked:                   No
    OpenMP threads:               4
    Memory [MiB]:              2669
    Algorithm:                 Core
    Schwarz Cutoff:           1E-12
    Mask sparsity (%):       3.1346
    Fitting Condition:        1E-10

   => Auxiliary Basis Set <=

  Basis Set: (DEF2-TZVP AUX)
    Blend: DEF2-TZVP-JKFIT
    Number of shells: 259
    Number of basis function: 777
    Number of Cartesian functions: 903
    Spherical Harmonics?: true
    Max angular momentum: 4

  Cached 100.0% of DFT collocation blocks in 2.981 [GiB].

  Minimum eigenvalue in the overlap matrix is 9.7601735513E-05.
  Using Symmetric Orthogonalization.

  SCF Guess: Superposition of Atomic Densities via on-the-fly atomic UHF.

  ==> Iterations <==

                           Total Energy        Delta E     RMS |[F,P]|

   @DF-RKS iter SAD:  -274.61943601429607   -2.74619e+02   0.00000e+00 
   @DF-RKS iter   1:  -274.14383702392695    4.75599e-01   4.11467e-03 DIIS
   @DF-RKS iter   2:  -273.38801022348747    7.55827e-01   5.67428e-03 DIIS
   @DF-RKS iter   3:  -274.93197558327512   -1.54397e+00   5.83564e-04 DIIS
   @DF-RKS iter   4:  -274.94349026063992   -1.15147e-02   2.73726e-04 DIIS
   @DF-RKS iter   5:  -274.94654153719904   -3.05128e-03   5.38525e-05 DIIS
   @DF-RKS iter   6:  -274.94666126977609   -1.19733e-04   8.13704e-06 DIIS
   @DF-RKS iter   7:  -274.94666410607732   -2.83630e-06   2.77414e-06 DIIS
   @DF-RKS iter   8:  -274.94666442820511   -3.22128e-07   6.94925e-07 DIIS
   @DF-RKS iter   9:  -274.94666444740926   -1.92042e-08   1.62010e-07 DIIS
   @DF-RKS iter  10:  -274.94666444858365   -1.17439e-09   3.78945e-08 DIIS
   @DF-RKS iter  11:  -274.94666444864839   -6.47447e-11   9.47273e-09 DIIS
  Energy and wave function converged.


  ==> Post-Iterations <==

    Orbital Energies [Eh]
    ---------------------

    Doubly Occupied:                                                      

       1A    -10.216203     2A    -10.207981     3A    -10.207861  
       4A    -10.207622     5A    -10.206818     6A    -10.206805  
       7A    -10.200232     8A     -0.860556     9A     -0.784801  
      10A     -0.759964    11A     -0.691508    12A     -0.622473  
      13A     -0.597457    14A     -0.567828    15A     -0.487127  
      16A     -0.460796    17A     -0.452908    18A     -0.444931  
      19A     -0.422660    20A     -0.394840    21A     -0.384903  
      22A     -0.373936    23A     -0.356765    24A     -0.349190  
      25A     -0.339783    26A     -0.326225    27A     -0.301794  
      28A     -0.298971  

    Virtual:                                                              

      29A      0.045797    30A      0.060849    31A      0.064697  
      32A      0.076098    33A      0.103980    34A      0.111974  
      35A      0.116631    36A      0.119093    37A      0.125009  
      38A      0.132258    39A      0.135011    40A      0.139172  
      41A      0.155171    42A      0.156049    43A      0.176418  
      44A      0.190064    45A      0.198676    46A      0.211832  
      47A      0.214183    48A      0.232608    49A      0.240769  
      50A      0.254036    51A      0.260032    52A      0.263813  
      53A      0.275778    54A      0.290506    55A      0.292310  
      56A      0.321478    57A      0.339511    58A      0.346911  
      59A      0.359772    60A      0.375400    61A      0.399033  
      62A      0.413449    63A      0.419632    64A      0.431261  
      65A      0.438578    66A      0.442551    67A      0.443677  
      68A      0.448169    69A      0.453108    70A      0.457286  
      71A      0.460713    72A      0.464420    73A      0.472372  
      74A      0.485933    75A      0.491019    76A      0.494899  
      77A      0.500712    78A      0.502459    79A      0.513350  
      80A      0.514610    81A      0.525509    82A      0.529694  
      83A      0.589573    84A      0.627926    85A      0.644066  
      86A      0.678770    87A      0.694983    88A      0.695514  
      89A      0.707122    90A      0.766103    91A      0.778711  
      92A      0.794704    93A      0.811503    94A      0.820779  
      95A      0.825180    96A      0.852042    97A      0.853797  
      98A      0.873745    99A      0.876819   100A      0.919639  
     101A      0.923564   102A      0.960279   103A      0.961285  
     104A      1.009051   105A      1.027805   106A      1.029900  
     107A      1.058940   108A      1.059438   109A      1.075183  
     110A      1.096462   111A      1.141337   112A      1.161125  
     113A      1.163354   114A      1.184330   115A      1.185437  
     116A      1.211070   117A      1.215025   118A      1.229197  
     119A      1.270309   120A      1.286141   121A      1.292132  
     122A      1.316028   123A      1.330187   124A      1.386252  
     125A      1.399757   126A      1.432301   127A      1.460288  
     128A      1.524709   129A      1.553256   130A      1.560329  
     131A      1.573404   132A      1.607244   133A      1.613507  
     134A      1.625639   135A      1.625882   136A      1.633090  
     137A      1.636066   138A      1.657002   139A      1.667369  
     140A      1.683794   141A      1.690540   142A      1.727779  
     143A      1.743775   144A      1.748784   145A      1.766419  
     146A      1.786176   147A      1.790905   148A      1.824433  
     149A      1.873435   150A      1.878195   151A      1.885719  
     152A      1.916009   153A      1.977661   154A      1.992063  
     155A      2.002847   156A      2.017425   157A      2.030098  
     158A      2.034978   159A      2.091007   160A      2.115196  
     161A      2.133053   162A      2.164709   163A      2.169120  
     164A      2.204297   165A      2.222532   166A      2.225416  
     167A      2.256636   168A      2.292223   169A      2.324756  
     170A      2.343069   171A      2.349843   172A      2.370581  
     173A      2.411166   174A      2.413978   175A      2.428372  
     176A      2.438060   177A      2.454886   178A      2.465414  
     179A      2.509616   180A      2.544861   181A      2.545412  
     182A      2.550481   183A      2.572312   184A      2.581335  
     185A      2.582173   186A      2.591676   187A      2.604874  
     188A      2.610173   189A      2.618222   190A      2.637556  
     191A      2.670836   192A      2.672021   193A      2.691499  
     194A      2.700983   195A      2.710046   196A      2.719967  
     197A      2.732686   198A      2.753972   199A      2.770748  
     200A      2.782318   201A      2.808551   202A      2.818220  
     203A      2.827708   204A      2.848706   205A      2.892151  
     206A      2.934148   207A      2.945038   208A      2.962882  
     209A      2.970929   210A      2.995763   211A      3.008195  
     212A      3.047078   213A      3.068268   214A      3.110140  
     215A      3.121715   216A      3.151150   217A      3.152698  
     218A      3.160832   219A      3.186041   220A      3.195346  
     221A      3.202191   222A      3.215611   223A      3.244991  
     224A      3.270661   225A      3.308068   226A      3.312197  
     227A      3.321880   228A      3.345237   229A      3.354850  
     230A      3.387922   231A      3.405636   232A      3.416158  
     233A      3.426626   234A      3.433655   235A      3.461960  
     236A      3.487556   237A      3.507146   238A      3.521744  
     239A      3.528987   240A      3.534216   241A      3.557510  
     242A      3.565147   243A      3.565277   244A      3.573888  
     245A      3.619747   246A      3.623741   247A      3.657864  
     248A      3.661048   249A      3.678830   250A      3.689735  
     251A      3.719541   252A      3.757966   253A      3.764059  
     254A      3.813030   255A      3.819585   256A      3.860869  
     257A      3.937567   258A      3.954962   259A      3.992415  
     260A      4.026987   261A      4.040008   262A      4.041088  
     263A      4.086840   264A      4.086888   265A      4.126110  
     266A      4.160585   267A      4.175017   268A      4.178330  
     269A      4.219748   270A      4.253228   271A      4.297286  
     272A      4.333992   273A      4.357606   274A      4.371331  
     275A      4.421049   276A      4.439447   277A      4.449443  
     278A      4.508529   279A      4.523497   280A      4.602493  
     281A      4.611685   282A      4.654795   283A      4.685869  
     284A      4.726315   285A      4.728862   286A      4.780076  
     287A      4.808510   288A      4.875585   289A      4.909262  
     290A      4.916160   291A      5.008437   292A      5.115592  
     293A      5.121520   294A      5.206938   295A     22.471700  
     296A     22.531817   297A     22.567144   298A     22.584539  
     299A     22.613247   300A     22.710194   301A     22.795973  

    Final Occupation by Irrep:
              A 
    DOCC [    28 ]

  @DF-RKS Final Energy:  -274.94666444864839

   => Energetics <=

    Nuclear Repulsion Energy =            330.5466134142968713
    One-Electron Energy =               -1024.1833732662983039
    Two-Electron Energy =                 451.3669139995002411
    DFT Exchange-Correlation Energy =     -32.6768185961472213
    Empirical Dispersion Energy =           0.0000000000000000
    VV10 Nonlocal Energy =                  0.0000000000000000
    Total Energy =                       -274.9466644486483915

Computation Completed


Properties will be evaluated at   0.000000,   0.000000,   0.000000 [a0]

Properties computed using the SCF density matrix

  Nuclear Dipole Moment: [e a0]
     X:     1.1971      Y:    -0.0003      Z:     0.3327

  Electronic Dipole Moment: [e a0]
     X:    -1.2345      Y:     0.0003      Z:    -0.3641

  Dipole Moment: [e a0]
     X:    -0.0374      Y:    -0.0000      Z:    -0.0314     Total:     0.0489

  Dipole Moment: [D]
     X:    -0.0951      Y:    -0.0001      Z:    -0.0799     Total:     0.1242


*** tstop() called on thinkpad at Sat Jul 10 12:47:58 2021
Module time:
	user time   =      91.34 seconds =       1.52 minutes
	system time =       1.60 seconds =       0.03 minutes
	total time  =         27 seconds =       0.45 minutes
Total time:
	user time   =      91.34 seconds =       1.52 minutes
	system time =       1.60 seconds =       0.03 minutes
	total time  =         27 seconds =       0.45 minutes

*** tstart() called on thinkpad
*** at Sat Jul 10 12:47:58 2021


         ------------------------------------------------------------
                                   SCF GRAD                          
                          Rob Parrish, Justin Turney,                
                       Andy Simmonett, and Alex Sokolov              
         ------------------------------------------------------------

  ==> Geometry <==

    Molecular point group: c1
    Full point group: C1

    Geometry (in Angstrom), charge = 0, multiplicity = 1:

       Center              X                  Y                   Z               Mass       
    ------------   -----------------  -----------------  -----------------  -----------------
         C            1.013809934684     0.000050496607    -0.332017393665    12.000000000000
         C            0.301165642284    -1.249045992993     0.188065662135    12.000000000000
         C            0.301159513584     1.249133457507     0.188119503135    12.000000000000
         C           -1.168190619316    -1.251849073293    -0.223203022665    12.000000000000
         C           -1.168175709816     1.251801740807    -0.223238403365    12.000000000000
         C           -1.870447986416    -0.000010723093     0.293148570635    12.000000000000
         C            2.483435257684    -0.000052647993     0.079321418435    12.000000000000
         H            0.957818572484     0.000131782107    -1.426967411265     1.007825032230
         H            0.371939245784    -1.273804530993     1.278340283935     1.007825032230
         H            0.795471098984    -2.143430687093    -0.198333919365     1.007825032230
         H            0.795500980884     2.143550092207    -0.198219641465     1.007825032230
         H            0.371930806884     1.273737148607     1.278405043035     1.007825032230
         H           -1.661334264216    -2.144457382993     0.168242790935     1.007825032230
         H           -1.238963195316    -1.282085406193    -1.313248755965     1.007825032230
         H           -1.238935828916     1.282150792707    -1.313295562565     1.007825032230
         H           -1.661385927416     2.144329156907     0.168276259835     1.007825032230
         H           -2.915302417116    -0.000018214793    -0.024985361465     1.007825032230
         H           -1.853114332416    -0.000057898293     1.385642178035     1.007825032230
         H            2.989443957884     0.882667306007    -0.305872237865     1.007825032230
         H            2.574320386284    -0.000803580093     1.163781860235     1.007825032230
         H            2.989546462184    -0.882233129093    -0.306898388565     1.007825032230

  Nuclear repulsion =  330.546613414296871

  ==> Basis Set <==

  Basis Set: DEF2-TZVP
    Blend: DEF2-TZVP
    Number of shells: 133
    Number of basis function: 301
    Number of Cartesian functions: 336
    Spherical Harmonics?: true
    Max angular momentum: 3

  ==> DFJKGrad: Density-Fitted SCF Gradients <==

    Gradient:                    1
    J tasked:                  Yes
    K tasked:                  Yes
    wK tasked:                  No
    OpenMP threads:              4
    Integrals threads:           4
    Memory [MiB]:             5722
    Schwarz Cutoff:          0E+00
    Fitting Condition:       1E-10

   => Auxiliary Basis Set <=

  Basis Set: (DEF2-TZVP AUX)
    Blend: DEF2-TZVP-JKFIT
    Number of shells: 259
    Number of basis function: 777
    Number of Cartesian functions: 903
    Spherical Harmonics?: true
    Max angular momentum: 4

  ==> DFT Potential <==

   => Composite Functional: PBE0 <= 

    PBE0 Hyb-GGA Exchange-Correlation Functional

    C. Adamo and V. Barone, J. Chem. Phys. 110, 6158 (1999)
    M. Ernzerhof and G. E. Scuseria, J. Chem. Phys. 110, 5029 (1999)

    Deriv               =              1
    GGA                 =           TRUE
    Meta                =          FALSE

    Exchange Hybrid     =           TRUE
    MP2 Hybrid          =          FALSE

   => Exchange Functionals <=

    0.7500   Perdew, Burke & Ernzerhof

   => Exact (HF) Exchange <=

    0.2500               HF 

   => Correlation Functionals <=

    1.0000   Perdew, Burke & Ernzerhof

   => Molecular Quadrature <=

    Radial Scheme          =       TREUTLER
    Pruning Scheme         =           FLAT
    Nuclear Scheme         =       TREUTLER

    BS radius alpha        =              1
    Pruning alpha          =              1
    Radial Points          =             75
    Spherical Points       =            302
    Total Points           =         472038
    Total Blocks           =           3451
    Max Points             =            256
    Max Functions          =            291


  -Total Gradient:
     Atom            X                  Y                   Z
    ------   -----------------  -----------------  -----------------
       1       -0.004862055562    -0.000004517579    -0.011615666485
       2        0.003478822445    -0.003031584368     0.010340907162
       3        0.003462402503     0.003054043328     0.010338166602
       4       -0.001221113263    -0.001677234472    -0.008565416999
       5       -0.001215980362     0.001655159646    -0.008585532941
       6       -0.002032731028     0.000015237730     0.008813320760
       7        0.007379564080    -0.000006219314     0.004992982609
       8        0.000611325050     0.000004522337     0.001104839124
       9       -0.001245375525     0.000752337335    -0.002589462901
      10       -0.001597930253     0.001678764583    -0.001043792213
      11       -0.001585308338    -0.001668013618    -0.001049438451
      12       -0.001238189257    -0.000762987383    -0.002584807754
      13        0.001057798542     0.001657841657     0.001313743804
      14        0.000800141456     0.001230084995     0.002065319266
      15        0.000799174875    -0.001220134286     0.002054007117
      16        0.001061158719    -0.001670400838     0.001317126553
      17        0.001838453094    -0.000001780531    -0.001379980688
      18        0.001247177691    -0.000007958715    -0.002345404450
      19       -0.002854774182    -0.002449105215     0.000491091852
      20       -0.001004557055    -0.000010508554    -0.003577010634
      21       -0.002863067878     0.002462406084     0.000507401566


*** tstop() called on thinkpad at Sat Jul 10 12:48:10 2021
Module time:
	user time   =      40.79 seconds =       0.68 minutes
	system time =       0.55 seconds =       0.01 minutes
	total time  =         12 seconds =       0.20 minutes
Total time:
	user time   =     132.13 seconds =       2.20 minutes
	system time =       2.15 seconds =       0.04 minutes
	total time  =         39 seconds =       0.65 minutes

			-----------------------------------------
			 OPTKING 2.0: for geometry optimizations 
			  - R.A. King,  Bethel University        
			-----------------------------------------

	Internal coordinates to be generated automatically.
	Detected frag 1 with atoms:  1 2 3 4 5 6 7 8 9 10 11 12 13 14 15 16 17 18 19 20
	 21
	---Fragment 1 Bond Connectivity---
	 1 : 2 3 7 8
	 2 : 1 4 9 10
	 3 : 1 5 11 12
	 4 : 2 6 13 14
	 5 : 3 6 15 16
	 6 : 4 5 17 18
	 7 : 1 19 20 21
	 8 : 1
	 9 : 2
	 10 : 2
	 11 : 3
	 12 : 3
	 13 : 4
	 14 : 4
	 15 : 5
	 16 : 5
	 17 : 6
	 18 : 6
	 19 : 7
	 20 : 7
	 21 : 7

	---Fragment 1 Geometry and Gradient---
	 C           1.9158231198        0.0000954248       -0.6274219429
	 C           0.5691205823       -2.3603548449        0.3553925950
	 C           0.5691090007        2.3605201288        0.3554943398
	 C          -2.2075603328       -2.3656518989       -0.4217925832
	 C          -2.2075321580        2.3655624535       -0.4218594430
	 C          -3.5346344262       -0.0000202637        0.5539705126
	 C           4.6930124873       -0.0000994903        0.1498957567
	 H           1.8100147799        0.0002490321       -2.6965775972
	 H           0.7028633098       -2.4071417009        2.4157130318
	 H           1.5032225178       -4.0504969675       -0.3747967890
	 H           1.5032789864        4.0507226105       -0.3745808351
	 H           0.7028473626        2.4070143667        2.4158354087
	 H          -3.1394667622       -4.0524371416        0.3179327974
	 H          -2.3413011187       -2.4227902872       -2.4816804834
	 H          -2.3412494037        2.4229138498       -2.4817689350
	 H          -3.1395643915        4.0521948294        0.3179960445
	 H          -5.5091231412       -0.0000344210       -0.0472154903
	 H          -3.5018785674       -0.0001094119        2.6184842244
	 H           5.6492303478        1.6679994682       -0.5780147589
	 H           4.8647604893       -0.0015185463        2.1992289856
	 H           5.6494240529       -1.6671789928       -0.5799539027
	            -0.0048620556       -0.0000045176       -0.0116156665
	             0.0034788224       -0.0030315844        0.0103409072
	             0.0034624025        0.0030540433        0.0103381666
	            -0.0012211133       -0.0016772345       -0.0085654170
	            -0.0012159804        0.0016551596       -0.0085855329
	            -0.0020327310        0.0000152377        0.0088133208
	             0.0073795641       -0.0000062193        0.0049929826
	             0.0006113251        0.0000045223        0.0011048391
	            -0.0012453755        0.0007523373       -0.0025894629
	            -0.0015979303        0.0016787646       -0.0010437922
	            -0.0015853083       -0.0016680136       -0.0010494385
	            -0.0012381893       -0.0007629874       -0.0025848078
	             0.0010577985        0.0016578417        0.0013137438
	             0.0008001415        0.0012300850        0.0020653193
	             0.0007991749       -0.0012201343        0.0020540071
	             0.0010611587       -0.0016704008        0.0013171266
	             0.0018384531       -0.0000017805       -0.0013799807
	             0.0012471777       -0.0000079587       -0.0023454045
	            -0.0028547742       -0.0024491052        0.0004910919
	            -0.0010045571       -0.0000105086       -0.0035770106
	            -0.0028630679        0.0024624061        0.0005074016

	Previous optimization step data not found.  Starting new optimization.

	---Fragment 1 Intrafragment Coordinates---
	 - Coordinate -           - BOHR/RAD -       - ANG/DEG -
	 R(1,2)           =         2.889854	       1.529245
	 R(1,3)           =         2.889873	       1.529255
	 R(1,7)           =         2.883922	       1.526106
	 R(1,8)           =         2.071859	       1.096381
	 R(2,4)           =         2.883401	       1.525830
	 R(2,9)           =         2.065187	       1.092850
	 R(2,10)          =         2.064535	       1.092505
	 R(3,5)           =         2.883408	       1.525834
	 R(3,11)          =         2.064574	       1.092526
	 R(3,12)          =         2.065200	       1.092857
	 R(4,6)           =         2.882612	       1.525413
	 R(4,13)          =         2.064192	       1.092323
	 R(4,14)          =         2.065016	       1.092759
	 R(5,6)           =         2.882608	       1.525410
	 R(5,15)          =         2.065042	       1.092773
	 R(5,16)          =         2.064170	       1.092312
	 R(6,17)          =         2.063984	       1.092213
	 R(6,18)          =         2.064774	       1.092631
	 R(7,19)          =         2.055909	       1.087940
	 R(7,20)          =         2.056518	       1.088262
	 R(7,21)          =         2.055859	       1.087914
	 B(1,2,4)         =         1.937559	     111.013979
	 B(1,2,9)         =         1.904575	     109.124119
	 B(1,2,10)        =         1.915110	     109.727738
	 B(1,3,5)         =         1.937444	     111.007391
	 B(1,3,11)        =         1.915107	     109.727561
	 B(1,3,12)        =         1.904489	     109.119205
	 B(1,7,19)        =         1.930939	     110.634672
	 B(1,7,20)        =         1.927318	     110.427174
	 B(1,7,21)        =         1.930891	     110.631893
	 B(2,1,3)         =         1.911681	     109.531240
	 B(2,1,7)         =         1.935896	     110.918649
	 B(2,1,8)         =         1.892211	     108.415719
	 B(2,4,6)         =         1.928994	     110.523212
	 B(2,4,13)        =         1.917355	     109.856348
	 B(2,4,14)        =         1.908464	     109.346918
	 B(3,1,7)         =         1.936005	     110.924931
	 B(3,1,8)         =         1.892118	     108.410390
	 B(3,5,6)         =         1.929047	     110.526227
	 B(3,5,15)        =         1.908508	     109.349474
	 B(3,5,16)        =         1.917296	     109.852994
	 B(4,2,9)         =         1.908397	     109.343120
	 B(4,2,10)        =         1.916513	     109.808094
	 B(4,6,5)         =         1.925087	     110.299373
	 B(4,6,17)        =         1.919637	     109.987076
	 B(4,6,18)        =         1.908285	     109.336659
	 B(5,3,11)        =         1.916603	     109.813251
	 B(5,3,12)        =         1.908458	     109.346605
	 B(5,6,17)        =         1.919652	     109.987953
	 B(5,6,18)        =         1.908385	     109.342392
	 B(6,4,13)        =         1.919271	     109.966155
	 B(6,4,14)        =         1.907683	     109.302184
	 B(6,5,15)        =         1.907802	     109.308974
	 B(6,5,16)        =         1.919130	     109.958067
	 B(7,1,8)         =         1.894798	     108.563924
	 B(9,2,10)        =         1.880736	     107.758237
	 B(11,3,12)       =         1.880793	     107.761522
	 B(13,4,14)       =         1.881387	     107.795540
	 B(15,5,16)       =         1.881371	     107.794633
	 B(17,6,18)       =         1.882220	     107.843262
	 B(19,7,20)       =         1.890766	     108.332912
	 B(19,7,21)       =         1.892164	     108.412996
	 B(20,7,21)       =         1.890577	     108.322059
	 D(1,2,4,6)       =        -1.008108	     -57.760324
	 D(1,2,4,13)      =        -3.129086	    -179.283448
	 D(1,2,4,14)      =         1.092667	      62.605206
	 D(1,3,5,6)       =         1.008217	      57.766554
	 D(1,3,5,15)      =        -1.092766	     -62.610905
	 D(1,3,5,16)      =         3.129014	     179.279308
	 D(2,1,3,5)       =        -0.999835	     -57.286333
	 D(2,1,3,11)      =        -3.121505	    -178.849089
	 D(2,1,3,12)      =         1.104643	      63.291377
	 D(2,1,7,19)      =         3.126433	     179.131439
	 D(2,1,7,20)      =        -1.063626	     -60.941302
	 D(2,1,7,21)      =         1.029231	      58.970606
	 D(2,4,6,5)       =         0.999119	      57.245330
	 D(2,4,6,17)      =         3.119525	     178.735615
	 D(2,4,6,18)      =        -1.099970	     -63.023651
	 D(3,1,2,4)       =         0.999830	      57.286032
	 D(3,1,2,9)       =        -1.104701	     -63.294694
	 D(3,1,2,10)      =         3.121465	     178.846754
	 D(3,1,7,19)      =        -1.028139	     -58.908040
	 D(3,1,7,20)      =         1.064986	      61.019219
	 D(3,1,7,21)      =        -3.125341	    -179.068873
	 D(3,5,6,4)       =        -0.999223	     -57.251278
	 D(3,5,6,17)      =        -3.119620	    -178.741042
	 D(3,5,6,18)      =         1.099806	      63.014254
	 D(4,2,1,7)       =        -3.140600	    -179.943116
	 D(4,2,1,8)       =        -1.061733	     -60.832818
	 D(4,6,5,15)      =         1.102182	      63.150404
	 D(4,6,5,16)      =        -3.118937	    -178.701900
	 D(5,3,1,7)       =         3.140660	     179.946546
	 D(5,3,1,8)       =         1.061786	      60.835836
	 D(5,6,4,13)      =         3.118965	     178.703525
	 D(5,6,4,14)      =        -1.102122	     -63.146961
	 D(6,4,2,9)       =         1.094160	      62.690769
	 D(6,4,2,10)      =        -3.128921	    -179.273987
	 D(6,5,3,11)      =         3.129011	     179.279122
	 D(6,5,3,12)      =        -1.093912	     -62.676527
	 D(7,1,2,9)       =         1.038055	      59.476157
	 D(7,1,2,10)      =        -1.018965	     -58.382395
	 D(7,1,3,11)      =         1.018989	      58.383790
	 D(7,1,3,12)      =        -1.038048	     -59.475744
	 D(8,1,2,9)       =         3.116922	     178.586456
	 D(8,1,2,10)      =         1.059902	      60.727904
	 D(8,1,3,11)      =        -1.059885	     -60.726920
	 D(8,1,3,12)      =        -3.116922	    -178.586454
	 D(8,1,7,19)      =         1.049123	      60.110307
	 D(8,1,7,20)      =        -3.140937	    -179.962434
	 D(8,1,7,21)      =        -1.048079	     -60.050526
	 D(9,2,4,13)      =        -1.026818	     -58.832355
	 D(9,2,4,14)      =        -3.088250	    -176.943701
	 D(10,2,4,13)     =         1.033285	      59.202889
	 D(10,2,4,14)     =        -1.028147	     -58.908457
	 D(11,3,5,15)     =         1.028028	      58.901663
	 D(11,3,5,16)     =        -1.033377	     -59.208123
	 D(12,3,5,15)     =         3.088291	     176.946014
	 D(12,3,5,16)     =         1.026886	      58.836227
	 D(13,4,6,17)     =        -1.043815	     -59.806190
	 D(13,4,6,18)     =         1.019875	      58.434544
	 D(14,4,6,17)     =         1.018283	      58.343325
	 D(14,4,6,18)     =         3.081973	     176.584059
	 D(15,5,6,17)     =        -1.018214	     -58.339360
	 D(15,5,6,18)     =        -3.081973	    -176.584063
	 D(16,5,6,17)     =         1.043852	      59.808336
	 D(16,5,6,18)     =        -1.019907	     -58.436368

	Current energy   :      -274.9466644486

	Generating empirical Hessian (Schlegel '84) for each fragment.
	Taking RFO optimization step.
	Going to follow RFO solution 1.
	Using RFO vector 1.
	Norm of target step-size    0.25353
	Projected energy change by RFO approximation:        -0.0044444414

	Back-transformation to cartesian coordinates...
	Successfully converged to displaced geometry.

	--- Internal Coordinate Step in ANG or DEG, aJ/ANG or AJ/DEG ---
	 ---------------------------------------------------------------------------
	   Coordinate                Previous        Force       Change         New 
	   ----------                --------       ------       ------       ------
	    1 R(1,2)          =      1.529245    -0.005274    -0.001228     1.528017
	    2 R(1,3)          =      1.529255    -0.005259    -0.001222     1.528033
	    3 R(1,7)          =      1.526106    -0.010556    -0.002264     1.523842
	    4 R(1,8)          =      1.096381     0.009348     0.001753     1.098134
	    5 R(2,4)          =      1.525830     0.003360     0.000718     1.526548
	    6 R(2,9)          =      1.092850     0.022089     0.004095     1.096945
	    7 R(2,10)         =      1.092505     0.014240     0.002637     1.095142
	    8 R(3,5)          =      1.525834     0.003314     0.000712     1.526546
	    9 R(3,11)         =      1.092526     0.014105     0.002612     1.095138
	   10 R(3,12)         =      1.092857     0.022048     0.004087     1.096944
	   11 R(4,6)          =      1.525413    -0.000103     0.000060     1.525473
	   12 R(4,13)         =      1.092323     0.011216     0.002076     1.094399
	   13 R(4,14)         =      1.092759     0.017677     0.003276     1.096035
	   14 R(5,6)          =      1.525410    -0.000159     0.000051     1.525461
	   15 R(5,15)         =      1.092773     0.017582     0.003259     1.096031
	   16 R(5,16)         =      1.092312     0.011302     0.002091     1.094403
	   17 R(6,17)         =      1.092213     0.011171     0.002066     1.094280
	   18 R(6,18)         =      1.092631     0.019162     0.003550     1.096181
	   19 R(7,19)         =      1.087940     0.028747     0.005243     1.093183
	   20 R(7,20)         =      1.088262     0.030055     0.005488     1.093750
	   21 R(7,21)         =      1.087914     0.028912     0.005273     1.093187
	   22 B(1,2,4)        =    111.013979     0.000117     1.259299   112.273277
	   23 B(1,2,9)        =    109.124119    -0.000073    -0.703998   108.420120
	   24 B(1,2,10)       =    109.727738    -0.000016     0.095661   109.823399
	   25 B(1,3,5)        =    111.007391     0.000117     1.265465   112.272857
	   26 B(1,3,11)       =    109.727561    -0.000016     0.094980   109.822541
	   27 B(1,3,12)       =    109.119205    -0.000072    -0.697883   108.421322
	   28 B(1,7,19)       =    110.634672     0.000128     0.635535   111.270208
	   29 B(1,7,20)       =    110.427174     0.000020     0.014636   110.441810
	   30 B(1,7,21)       =    110.631893     0.000128     0.637692   111.269585
	   31 B(2,1,3)        =    109.531240    -0.000031     0.800222   110.331462
	   32 B(2,1,7)        =    110.918649     0.000076     0.725724   111.644373
	   33 B(2,1,8)        =    108.415719    -0.000050    -0.958863   107.456856
	   34 B(2,4,6)        =    110.523212     0.000004     0.890468   111.413680
	   35 B(2,4,13)       =    109.856348     0.000052     0.417740   110.274088
	   36 B(2,4,14)       =    109.346918    -0.000020    -0.341086   109.005832
	   37 B(3,1,7)        =    110.924931     0.000075     0.722073   111.647004
	   38 B(3,1,8)        =    108.410390    -0.000049    -0.953216   107.457173
	   39 B(3,5,6)        =    110.526227     0.000004     0.888106   111.414333
	   40 B(3,5,15)       =    109.349474    -0.000021    -0.344491   109.004983
	   41 B(3,5,16)       =    109.852994     0.000052     0.422448   110.275442
	   42 B(4,2,9)        =    109.343120    -0.000025    -0.190863   109.152257
	   43 B(4,2,10)       =    109.808094     0.000034     0.505827   110.313921
	   44 B(4,6,5)        =    110.299373     0.000036     0.913481   111.212854
	   45 B(4,6,17)       =    109.987076     0.000039     0.383713   110.370789
	   46 B(4,6,18)       =    109.336659    -0.000029    -0.341857   108.994801
	   47 B(5,3,11)       =    109.813251     0.000033     0.500015   110.313266
	   48 B(5,3,12)       =    109.346605    -0.000026    -0.194206   109.152399
	   49 B(5,6,17)       =    109.987953     0.000039     0.382009   110.369962
	   50 B(5,6,18)       =    109.342392    -0.000030    -0.348513   108.993879
	   51 B(6,4,13)       =    109.966155     0.000038     0.389239   110.355394
	   52 B(6,4,14)       =    109.302184    -0.000009    -0.337282   108.964903
	   53 B(6,5,15)       =    109.308974    -0.000009    -0.344522   108.964452
	   54 B(6,5,16)       =    109.958067     0.000039     0.396856   110.354923
	   55 B(7,1,8)        =    108.563924    -0.000027    -0.468178   108.095745
	   56 B(9,2,10)       =    107.758237    -0.000042    -1.079116   106.679121
	   57 B(11,3,12)      =    107.761522    -0.000042    -1.081711   106.679811
	   58 B(13,4,14)      =    107.795540    -0.000067    -1.102125   106.693414
	   59 B(15,5,16)      =    107.794633    -0.000067    -1.101530   106.693103
	   60 B(17,6,18)      =    107.843262    -0.000059    -1.066922   106.776341
	   61 B(19,7,20)      =    108.332912    -0.000088    -0.485403   107.847509
	   62 B(19,7,21)      =    108.412996    -0.000112    -0.389147   108.023849
	   63 B(20,7,21)      =    108.322059    -0.000087    -0.476675   107.845385
	   64 D(1,2,4,6)      =    -57.760324     0.000020     2.672158   -55.088165
	   65 D(1,2,4,13)     =   -179.283448     0.000000     1.294986  -177.988462
	   66 D(1,2,4,14)     =     62.605206     0.000015     2.591153    65.196359
	   67 D(1,3,5,6)      =     57.766554    -0.000020    -2.678860    55.087694
	   68 D(1,3,5,15)     =    -62.610905    -0.000014    -2.585219   -65.196124
	   69 D(1,3,5,16)     =    179.279308    -0.000000    -1.290510   177.988798
	   70 D(2,1,3,5)      =    -57.286333     0.000030     2.941415   -54.344918
	   71 D(2,1,3,11)     =   -178.849089     0.000006     1.383150  -177.465940
	   72 D(2,1,3,12)     =     63.291377     0.000029     3.034148    66.325524
	   73 D(2,1,7,19)     =    179.131439    -0.000004    -0.882561   178.248879
	   74 D(2,1,7,20)     =    -60.941302    -0.000008    -1.068258   -62.009561
	   75 D(2,1,7,21)     =     58.970606    -0.000010    -1.241679    57.728927
	   76 D(2,4,6,5)      =     57.245330    -0.000024    -2.596494    54.648836
	   77 D(2,4,6,17)     =    178.735615    -0.000001    -1.238997   177.496618
	   78 D(2,4,6,18)     =    -63.023651    -0.000016    -2.515141   -65.538791
	   79 D(3,1,2,4)      =     57.286032    -0.000030    -2.940625    54.345407
	   80 D(3,1,2,9)      =    -63.294694    -0.000029    -3.029620   -66.324314
	   81 D(3,1,2,10)     =    178.846754    -0.000005    -1.378569   177.468185
	   82 D(3,1,7,19)     =    -58.908040     0.000010     1.189293   -57.718747
	   83 D(3,1,7,20)     =     61.019219     0.000007     1.003595    62.022814
	   84 D(3,1,7,21)     =   -179.068873     0.000004     0.830174  -178.238699
	   85 D(3,5,6,4)      =    -57.251278     0.000024     2.602325   -54.648953
	   86 D(3,5,6,17)     =   -178.741042     0.000001     1.243833  -177.497210
	   87 D(3,5,6,18)     =     63.014254     0.000017     2.524966    65.539220
	   88 D(4,2,1,7)      =   -179.943116    -0.000002    -0.942002  -180.885118
	   89 D(4,2,1,8)      =    -60.832818    -0.000006    -1.687015   -62.519832
	   90 D(4,6,5,15)     =     63.150404     0.000017     2.508326    65.658731
	   91 D(4,6,5,16)     =   -178.701900     0.000003     1.197365  -177.504535
	   92 D(5,3,1,7)      =    179.946546     0.000002     0.940565   180.887111
	   93 D(5,3,1,8)      =     60.835836     0.000006     1.684288    62.520124
	   94 D(5,6,4,13)     =    178.703525    -0.000003    -1.200960   177.502565
	   95 D(5,6,4,14)     =    -63.146961    -0.000017    -2.512828   -65.659789
	   96 D(6,4,2,9)      =     62.690769     0.000012     2.467282    65.158051
	   97 D(6,4,2,10)     =   -179.273987     0.000001     1.339152  -177.934835
	   98 D(6,5,3,11)     =    179.279122    -0.000001    -1.346637   177.932485
	   99 D(6,5,3,12)     =    -62.676527    -0.000012    -2.483331   -65.159858
	  100 D(7,1,2,9)      =     59.476157    -0.000000    -1.030997    58.445161
	  101 D(7,1,2,10)     =    -58.382395     0.000023     0.620054   -57.762340
	  102 D(7,1,3,11)     =     58.383790    -0.000023    -0.617701    57.766089
	  103 D(7,1,3,12)     =    -59.475744     0.000000     1.033297   -58.442447
	  104 D(8,1,2,9)      =    178.586456    -0.000005    -1.776009   176.810446
	  105 D(8,1,2,10)     =     60.727904     0.000019    -0.124958    60.602945
	  106 D(8,1,3,11)     =    -60.726920    -0.000019     0.126022   -60.600897
	  107 D(8,1,3,12)     =   -178.586454     0.000005     1.777020  -176.809433
	  108 D(8,1,7,19)     =     60.110307     0.000003     0.155716    60.266024
	  109 D(8,1,7,20)     =   -179.962434    -0.000000    -0.029981  -179.992415
	  110 D(8,1,7,21)     =    -60.050526    -0.000003    -0.203402   -60.253928
	  111 D(9,2,4,13)     =    -58.832355    -0.000007     1.090109   -57.742246
	  112 D(9,2,4,14)     =   -176.943701     0.000007     2.386276  -174.557425
	  113 D(10,2,4,13)    =     59.202889    -0.000018    -0.038021    59.164868
	  114 D(10,2,4,14)    =    -58.908457    -0.000004     1.258147   -57.650311
	  115 D(11,3,5,15)    =     58.901663     0.000004    -1.252996    57.648667
	  116 D(11,3,5,16)    =    -59.208123     0.000018     0.041712   -59.166411
	  117 D(12,3,5,15)    =    176.946014    -0.000007    -2.389690   174.556324
	  118 D(12,3,5,16)    =     58.836227     0.000007    -1.094981    57.741246
	  119 D(13,4,6,17)    =    -59.806190     0.000020     0.156536   -59.649653
	  120 D(13,4,6,18)    =     58.434544     0.000005    -1.119607    57.314938
	  121 D(14,4,6,17)    =     58.343325     0.000005    -1.155332    57.187993
	  122 D(14,4,6,18)    =    176.584059    -0.000010    -2.431475   174.152584
	  123 D(15,5,6,17)    =    -58.339360    -0.000005     1.149834   -57.189526
	  124 D(15,5,6,18)    =   -176.584063     0.000010     2.430967  -174.153096
	  125 D(16,5,6,17)    =     59.808336    -0.000020    -0.161128    59.647208
	  126 D(16,5,6,18)    =    -58.436368    -0.000005     1.120005   -57.316362
	 ---------------------------------------------------------------------------
	Successfully symmetrized geometry.

  ==> Convergence Check <==

  Measures of convergence in internal coordinates in au.
  Criteria marked as inactive (o), active & met (*), and active & unmet ( ).
  --------------------------------------------------------------------------------------------- ~
   Step     Total Energy     Delta E     MAX Force     RMS Force      MAX Disp      RMS Disp    ~
  --------------------------------------------------------------------------------------------- ~
    Convergence Criteria    1.00e-06 *    3.00e-04 *             o    1.20e-03 *             o  ~
  --------------------------------------------------------------------------------------------- ~
      1    -274.94666445   -2.75e+02      3.65e-03      1.08e-03 o    5.30e-02      2.26e-02 o  ~
  ---------------------------------------------------------------------------------------------

	Writing optimization data to binary file.
	Structure for next step:
	Cartesian Geometry (in Angstrom)
	    C     1.0246850304   0.0000536973  -0.3171502799
	    C     0.3015906148  -1.2542407056   0.1714369120
	    C     0.3015766581   1.2541892661   0.1718730933
	    C    -1.1749897996  -1.2587506045  -0.2159123571
	    C    -1.1750025784   1.2588091439  -0.2154686330
	    C    -1.8833899433  -0.0000536974   0.2749217190
	    C     2.4915407713  -0.0000530730   0.0956784294
	    H     0.9791378232   0.0002386269  -1.4143391518
	    H     0.3871654442  -1.3002148377   1.2640717594
	    H     0.8002544923  -2.1469159449  -0.2207368199
	    H     0.8002213452   2.1469882879  -0.2200327005
	    H     0.3871577939   1.2998193185   1.2645216252
	    H    -1.6681384160  -2.1519908356   0.1798590492
	    H    -1.2574721053  -1.3111651922  -1.3075819652
	    H    -1.2574730403   1.3115873970  -1.3071178827
	    H    -1.6681854842   2.1519074481   0.1805925947
	    H    -2.9284262750   0.0000089413  -0.0496508927
	    H    -1.8925286054  -0.0002351728   1.3710644112
	    H     3.0101843166   0.8845861705  -0.2830987464
	    H     2.5816023937  -0.0003736164   1.1857143933
	    H     3.0101811378  -0.8844919107  -0.2835810868
			--------------------------
			 OPTKING Finished Execution 
			--------------------------

    Structure for next step:
    Molecular point group: c1
    Full point group: C1

    Geometry (in Angstrom), charge = 0, multiplicity = 1:

    C            1.025440774246     0.000061902071    -0.316610534839
    C            0.302346355869    -1.254232505794     0.171976658950
    C            0.302332399159     1.254197475778     0.172412840274
    C           -1.174234064407    -1.258742404693    -0.215372611663
    C           -1.174246843182     1.258817353626    -0.214928887573
    C           -1.882634210874    -0.000045492670     0.275461466360
    C            2.492296520933    -0.000044868223     0.096218176059
    H            0.979893566903     0.000246831720    -1.413799411066
    H            0.387921185592    -1.300206638028     1.264611510674
    H            0.801010235323    -2.146907748603    -0.220197074484
    H            0.800977088161     2.146996501090    -0.219492955144
    H            0.387913535233     1.299827528366     1.265061376454
    H           -1.667382682729    -2.151982639309     0.180398796218
    H           -1.256716370365    -1.311156992587    -1.307042224059
    H           -1.256717305365     1.311595606897    -1.306578141586
    H           -1.667429750920     2.151915661324     0.181132341636
    H           -2.927670546625     0.000017146069    -0.049111146592
    H           -1.891772873046    -0.000226967998     1.371604162857
    H            3.010940068321     0.884594378710    -0.282559001239
    H            2.582358143666    -0.000365411664     1.186254144264
    H            3.010936889439    -0.884483709367    -0.283041341689

gradient() will perform analytic gradient computation.

*** tstart() called on thinkpad
*** at Sat Jul 10 12:48:10 2021

   => Loading Basis Set <=

    Name: DEF2-TZVP
    Role: ORBITAL
    Keyword: BASIS
    atoms 1-7  entry C          line   123 file /usr/share/psi4/basis/def2-tzvp.gbs 
    atoms 8-21 entry H          line    15 file /usr/share/psi4/basis/def2-tzvp.gbs 


         ---------------------------------------------------------
                                   SCF
               by Justin Turney, Rob Parrish, Andy Simmonett
                          and Daniel G. A. Smith
                              RKS Reference
                        4 Threads,   7629 MiB Core
         ---------------------------------------------------------

  ==> Geometry <==

    Molecular point group: c1
    Full point group: C1

    Geometry (in Angstrom), charge = 0, multiplicity = 1:

       Center              X                  Y                   Z               Mass       
    ------------   -----------------  -----------------  -----------------  -----------------
         C            1.025440774246     0.000061902071    -0.316610534839    12.000000000000
         C            0.302346355869    -1.254232505794     0.171976658950    12.000000000000
         C            0.302332399159     1.254197475778     0.172412840274    12.000000000000
         C           -1.174234064407    -1.258742404693    -0.215372611663    12.000000000000
         C           -1.174246843182     1.258817353626    -0.214928887573    12.000000000000
         C           -1.882634210874    -0.000045492670     0.275461466360    12.000000000000
         C            2.492296520933    -0.000044868223     0.096218176059    12.000000000000
         H            0.979893566903     0.000246831720    -1.413799411066     1.007825032230
         H            0.387921185592    -1.300206638028     1.264611510674     1.007825032230
         H            0.801010235323    -2.146907748603    -0.220197074484     1.007825032230
         H            0.800977088161     2.146996501090    -0.219492955144     1.007825032230
         H            0.387913535233     1.299827528366     1.265061376454     1.007825032230
         H           -1.667382682729    -2.151982639309     0.180398796218     1.007825032230
         H           -1.256716370365    -1.311156992587    -1.307042224059     1.007825032230
         H           -1.256717305365     1.311595606897    -1.306578141586     1.007825032230
         H           -1.667429750920     2.151915661324     0.181132341636     1.007825032230
         H           -2.927670546625     0.000017146069    -0.049111146592     1.007825032230
         H           -1.891772873046    -0.000226967998     1.371604162857     1.007825032230
         H            3.010940068321     0.884594378710    -0.282559001239     1.007825032230
         H            2.582358143666    -0.000365411664     1.186254144264     1.007825032230
         H            3.010936889439    -0.884483709367    -0.283041341689     1.007825032230

  Running in c1 symmetry.

  Rotational constants: A =      0.14140  B =      0.07331  C =      0.05327 [cm^-1]
  Rotational constants: A =   4238.95640  B =   2197.92001  C =   1597.14351 [MHz]
  Nuclear repulsion =  329.537992442390077

  Charge       = 0
  Multiplicity = 1
  Electrons    = 56
  Nalpha       = 28
  Nbeta        = 28

  ==> Algorithm <==

  SCF Algorithm Type is DF.
  DIIS enabled.
  MOM disabled.
  Fractional occupation disabled.
  Guess Type is READ.
  Energy threshold   = 1.00e-08
  Density threshold  = 1.00e-08
  Integral threshold = 0.00e+00

  ==> Primary Basis <==

  Basis Set: DEF2-TZVP
    Blend: DEF2-TZVP
    Number of shells: 133
    Number of basis function: 301
    Number of Cartesian functions: 336
    Spherical Harmonics?: true
    Max angular momentum: 3

  ==> DFT Potential <==

   => Composite Functional: PBE0 <= 

    PBE0 Hyb-GGA Exchange-Correlation Functional

    C. Adamo and V. Barone, J. Chem. Phys. 110, 6158 (1999)
    M. Ernzerhof and G. E. Scuseria, J. Chem. Phys. 110, 5029 (1999)

    Deriv               =              1
    GGA                 =           TRUE
    Meta                =          FALSE

    Exchange Hybrid     =           TRUE
    MP2 Hybrid          =          FALSE

   => Exchange Functionals <=

    0.7500   Perdew, Burke & Ernzerhof

   => Exact (HF) Exchange <=

    0.2500               HF 

   => Correlation Functionals <=

    1.0000   Perdew, Burke & Ernzerhof

   => Molecular Quadrature <=

    Radial Scheme          =       TREUTLER
    Pruning Scheme         =           FLAT
    Nuclear Scheme         =       TREUTLER

    BS radius alpha        =              1
    Pruning alpha          =              1
    Radial Points          =             75
    Spherical Points       =            302
    Total Points           =         472043
    Total Blocks           =           3452
    Max Points             =            256
    Max Functions          =            290

   => Loading Basis Set <=

    Name: (DEF2-TZVP AUX)
    Role: JKFIT
    Keyword: DF_BASIS_SCF
    atoms 1-7  entry C          line   203 file /usr/share/psi4/basis/def2-tzvp-jkfit.gbs 
    atoms 8-21 entry H          line    23 file /usr/share/psi4/basis/def2-tzvp-jkfit.gbs 

   => Loading Basis Set <=

    Name: DEF2-TZVP
    Role: ORBITAL
    Keyword: BASIS
    atoms 1-7  entry C          line   123 file /usr/share/psi4/basis/def2-tzvp.gbs 
    atoms 8-21 entry H          line    15 file /usr/share/psi4/basis/def2-tzvp.gbs 

  Reading orbitals from file 180, no projection.

  ==> Pre-Iterations <==

   -------------------------------------------------------
    Irrep   Nso     Nmo     Nalpha   Nbeta   Ndocc  Nsocc
   -------------------------------------------------------
     A        301     301       0       0       0       0
   -------------------------------------------------------
    Total     301     301      28      28      28       0
   -------------------------------------------------------

  ==> Integral Setup <==

  DFHelper Memory: AOs need 0.533 GiB; user supplied 2.616 GiB. Using in-core AOs.

  ==> MemDFJK: Density-Fitted J/K Matrices <==

    J tasked:                   Yes
    K tasked:                   Yes
    wK tasked:                   No
    OpenMP threads:               4
    Memory [MiB]:              2678
    Algorithm:                 Core
    Schwarz Cutoff:           1E-12
    Mask sparsity (%):       3.2318
    Fitting Condition:        1E-10

   => Auxiliary Basis Set <=

  Basis Set: (DEF2-TZVP AUX)
    Blend: DEF2-TZVP-JKFIT
    Number of shells: 259
    Number of basis function: 777
    Number of Cartesian functions: 903
    Spherical Harmonics?: true
    Max angular momentum: 4

  Cached 100.0% of DFT collocation blocks in 2.972 [GiB].

  Minimum eigenvalue in the overlap matrix is 1.0510182331E-04.
  Using Symmetric Orthogonalization.

  SCF Guess: Orbitals guess was supplied from a previous computation.

  ==> Iterations <==

                           Total Energy        Delta E     RMS |[F,P]|

   @DF-RKS iter   0:  -274.93612709709134   -2.74936e+02   1.89350e-04 
   @DF-RKS iter   1:  -274.94744752475054   -1.13204e-02   1.56219e-05 DIIS
   @DF-RKS iter   2:  -274.94746317358647   -1.56488e-05   5.94053e-06 DIIS
   @DF-RKS iter   3:  -274.94746475210212   -1.57852e-06   2.00563e-06 DIIS
   @DF-RKS iter   4:  -274.94746490276822   -1.50666e-07   8.22355e-07 DIIS
   @DF-RKS iter   5:  -274.94746493118856   -2.84203e-08   1.74317e-07 DIIS
   @DF-RKS iter   6:  -274.94746493234203   -1.15347e-09   5.26828e-08 DIIS
   @DF-RKS iter   7:  -274.94746493246413   -1.22100e-10   9.19879e-09 DIIS
  Energy and wave function converged.


  ==> Post-Iterations <==

    Orbital Energies [Eh]
    ---------------------

    Doubly Occupied:                                                      

       1A    -10.216911     2A    -10.209495     3A    -10.209417  
       4A    -10.209061     5A    -10.208073     6A    -10.208061  
       7A    -10.202768     8A     -0.859079     9A     -0.785013  
      10A     -0.759863    11A     -0.691777    12A     -0.624015  
      13A     -0.598667    14A     -0.564424    15A     -0.486768  
      16A     -0.459406    17A     -0.450407    18A     -0.446373  
      19A     -0.423391    20A     -0.393267    21A     -0.385361  
      22A     -0.375589    23A     -0.359155    24A     -0.347045  
      25A     -0.336985    26A     -0.320075    27A     -0.305639  
      28A     -0.301615  

    Virtual:                                                              

      29A      0.044429    30A      0.061935    31A      0.064229  
      32A      0.075923    33A      0.103165    34A      0.112509  
      35A      0.116011    36A      0.118225    37A      0.123637  
      38A      0.132042    39A      0.134925    40A      0.138478  
      41A      0.155143    42A      0.155328    43A      0.175108  
      44A      0.190144    45A      0.198554    46A      0.212655  
      47A      0.212909    48A      0.230896    49A      0.242780  
      50A      0.252024    51A      0.259842    52A      0.262267  
      53A      0.273748    54A      0.290140    55A      0.290325  
      56A      0.321986    57A      0.334865    58A      0.343108  
      59A      0.360900    60A      0.375328    61A      0.399679  
      62A      0.412231    63A      0.419651    64A      0.429594  
      65A      0.437973    66A      0.442775    67A      0.443150  
      68A      0.445723    69A      0.453101    70A      0.457435  
      71A      0.460527    72A      0.461852    73A      0.473935  
      74A      0.484777    75A      0.489914    76A      0.494326  
      77A      0.501293    78A      0.502389    79A      0.511360  
      80A      0.512010    81A      0.525325    82A      0.529238  
      83A      0.588149    84A      0.623228    85A      0.639310  
      86A      0.672607    87A      0.690130    88A      0.697081  
      89A      0.703458    90A      0.762274    91A      0.778711  
      92A      0.798088    93A      0.805403    94A      0.815085  
      95A      0.825847    96A      0.848359    97A      0.855033  
      98A      0.873563    99A      0.876112   100A      0.912122  
     101A      0.920690   102A      0.954781   103A      0.959561  
     104A      1.010993   105A      1.025259   106A      1.029656  
     107A      1.053542   108A      1.065370   109A      1.070275  
     110A      1.098435   111A      1.133108   112A      1.159968  
     113A      1.160817   114A      1.175036   115A      1.182188  
     116A      1.213289   117A      1.216386   118A      1.232438  
     119A      1.272015   120A      1.286016   121A      1.286699  
     122A      1.319208   123A      1.329239   124A      1.384415  
     125A      1.418804   126A      1.443125   127A      1.465957  
     128A      1.531120   129A      1.555915   130A      1.560099  
     131A      1.571831   132A      1.601928   133A      1.609543  
     134A      1.623862   135A      1.626527   136A      1.630940  
     137A      1.639223   138A      1.656571   139A      1.666282  
     140A      1.685026   141A      1.691886   142A      1.737657  
     143A      1.740718   144A      1.746406   145A      1.774738  
     146A      1.784095   147A      1.791912   148A      1.824852  
     149A      1.872244   150A      1.885849   151A      1.887675  
     152A      1.909381   153A      1.972901   154A      1.985457  
     155A      2.004816   156A      2.005078   157A      2.028432  
     158A      2.035650   159A      2.085456   160A      2.104370  
     161A      2.123054   162A      2.147687   163A      2.168741  
     164A      2.194373   165A      2.207704   166A      2.214040  
     167A      2.236963   168A      2.294625   169A      2.321923  
     170A      2.340496   171A      2.347133   172A      2.371341  
     173A      2.403298   174A      2.415178   175A      2.433627  
     176A      2.452456   177A      2.462362   178A      2.477663  
     179A      2.513153   180A      2.535064   181A      2.539456  
     182A      2.548474   183A      2.569746   184A      2.577299  
     185A      2.578287   186A      2.590150   187A      2.599036  
     188A      2.609253   189A      2.620156   190A      2.633135  
     191A      2.665780   192A      2.675826   193A      2.690523  
     194A      2.700236   195A      2.708728   196A      2.713067  
     197A      2.736101   198A      2.747101   199A      2.764012  
     200A      2.772260   201A      2.806007   202A      2.818296  
     203A      2.825901   204A      2.850840   205A      2.891263  
     206A      2.916474   207A      2.935136   208A      2.952844  
     209A      2.953342   210A      2.986232   211A      2.998830  
     212A      3.045371   213A      3.053793   214A      3.111440  
     215A      3.121762   216A      3.147000   217A      3.148940  
     218A      3.160576   219A      3.193264   220A      3.196807  
     221A      3.203378   222A      3.218237   223A      3.242633  
     224A      3.269540   225A      3.313509   226A      3.315288  
     227A      3.317744   228A      3.344805   229A      3.346998  
     230A      3.384378   231A      3.401324   232A      3.414955  
     233A      3.423289   234A      3.423966   235A      3.453260  
     236A      3.480943   237A      3.499749   238A      3.517462  
     239A      3.531220   240A      3.534044   241A      3.551882  
     242A      3.556897   243A      3.559243   244A      3.570228  
     245A      3.619297   246A      3.629476   247A      3.644908  
     248A      3.661354   249A      3.674921   250A      3.685623  
     251A      3.713136   252A      3.745154   253A      3.761119  
     254A      3.812873   255A      3.814310   256A      3.856438  
     257A      3.930074   258A      3.960679   259A      3.993157  
     260A      4.003993   261A      4.031651   262A      4.037994  
     263A      4.078593   264A      4.083871   265A      4.122627  
     266A      4.157864   267A      4.169815   268A      4.174445  
     269A      4.203253   270A      4.236760   271A      4.295057  
     272A      4.339408   273A      4.343072   274A      4.358024  
     275A      4.403392   276A      4.430078   277A      4.432344  
     278A      4.501828   279A      4.520680   280A      4.593425  
     281A      4.598178   282A      4.651937   283A      4.674941  
     284A      4.718646   285A      4.726417   286A      4.782926  
     287A      4.830610   288A      4.872651   289A      4.924096  
     290A      4.924567   291A      5.010498   292A      5.102169  
     293A      5.111780   294A      5.203342   295A     22.452078  
     296A     22.521130   297A     22.561687   298A     22.577055  
     299A     22.604963   300A     22.687636   301A     22.785006  

    Final Occupation by Irrep:
              A 
    DOCC [    28 ]

  @DF-RKS Final Energy:  -274.94746493246413

   => Energetics <=

    Nuclear Repulsion Energy =            329.5379924423900775
    One-Electron Energy =               -1022.1684824734243193
    Two-Electron Energy =                 450.3448562344387369
    DFT Exchange-Correlation Energy =     -32.6618311358686668
    Empirical Dispersion Energy =           0.0000000000000000
    VV10 Nonlocal Energy =                  0.0000000000000000
    Total Energy =                       -274.9474649324641859

Computation Completed


Properties will be evaluated at   0.000000,   0.000000,   0.000000 [a0]

Properties computed using the SCF density matrix

  Nuclear Dipole Moment: [e a0]
     X:     1.2133      Y:    -0.0001      Z:     0.3443

  Electronic Dipole Moment: [e a0]
     X:    -1.2497      Y:     0.0001      Z:    -0.3776

  Dipole Moment: [e a0]
     X:    -0.0364      Y:     0.0000      Z:    -0.0334     Total:     0.0493

  Dipole Moment: [D]
     X:    -0.0924      Y:     0.0000      Z:    -0.0848     Total:     0.1254


*** tstop() called on thinkpad at Sat Jul 10 12:48:33 2021
Module time:
	user time   =      76.46 seconds =       1.27 minutes
	system time =       0.57 seconds =       0.01 minutes
	total time  =         23 seconds =       0.38 minutes
Total time:
	user time   =     209.22 seconds =       3.49 minutes
	system time =       2.74 seconds =       0.05 minutes
	total time  =         62 seconds =       1.03 minutes

*** tstart() called on thinkpad
*** at Sat Jul 10 12:48:33 2021


         ------------------------------------------------------------
                                   SCF GRAD                          
                          Rob Parrish, Justin Turney,                
                       Andy Simmonett, and Alex Sokolov              
         ------------------------------------------------------------

  ==> Geometry <==

    Molecular point group: c1
    Full point group: C1

    Geometry (in Angstrom), charge = 0, multiplicity = 1:

       Center              X                  Y                   Z               Mass       
    ------------   -----------------  -----------------  -----------------  -----------------
         C            1.025440774246     0.000061902071    -0.316610534839    12.000000000000
         C            0.302346355869    -1.254232505794     0.171976658950    12.000000000000
         C            0.302332399159     1.254197475778     0.172412840274    12.000000000000
         C           -1.174234064407    -1.258742404693    -0.215372611663    12.000000000000
         C           -1.174246843182     1.258817353626    -0.214928887573    12.000000000000
         C           -1.882634210874    -0.000045492670     0.275461466360    12.000000000000
         C            2.492296520933    -0.000044868223     0.096218176059    12.000000000000
         H            0.979893566903     0.000246831720    -1.413799411066     1.007825032230
         H            0.387921185592    -1.300206638028     1.264611510674     1.007825032230
         H            0.801010235323    -2.146907748603    -0.220197074484     1.007825032230
         H            0.800977088161     2.146996501090    -0.219492955144     1.007825032230
         H            0.387913535233     1.299827528366     1.265061376454     1.007825032230
         H           -1.667382682729    -2.151982639309     0.180398796218     1.007825032230
         H           -1.256716370365    -1.311156992587    -1.307042224059     1.007825032230
         H           -1.256717305365     1.311595606897    -1.306578141586     1.007825032230
         H           -1.667429750920     2.151915661324     0.181132341636     1.007825032230
         H           -2.927670546625     0.000017146069    -0.049111146592     1.007825032230
         H           -1.891772873046    -0.000226967998     1.371604162857     1.007825032230
         H            3.010940068321     0.884594378710    -0.282559001239     1.007825032230
         H            2.582358143666    -0.000365411664     1.186254144264     1.007825032230
         H            3.010936889439    -0.884483709367    -0.283041341689     1.007825032230

  Nuclear repulsion =  329.537992442390077

  ==> Basis Set <==

  Basis Set: DEF2-TZVP
    Blend: DEF2-TZVP
    Number of shells: 133
    Number of basis function: 301
    Number of Cartesian functions: 336
    Spherical Harmonics?: true
    Max angular momentum: 3

  ==> DFJKGrad: Density-Fitted SCF Gradients <==

    Gradient:                    1
    J tasked:                  Yes
    K tasked:                  Yes
    wK tasked:                  No
    OpenMP threads:              4
    Integrals threads:           4
    Memory [MiB]:             5722
    Schwarz Cutoff:          0E+00
    Fitting Condition:       1E-10

   => Auxiliary Basis Set <=

  Basis Set: (DEF2-TZVP AUX)
    Blend: DEF2-TZVP-JKFIT
    Number of shells: 259
    Number of basis function: 777
    Number of Cartesian functions: 903
    Spherical Harmonics?: true
    Max angular momentum: 4

  ==> DFT Potential <==

   => Composite Functional: PBE0 <= 

    PBE0 Hyb-GGA Exchange-Correlation Functional

    C. Adamo and V. Barone, J. Chem. Phys. 110, 6158 (1999)
    M. Ernzerhof and G. E. Scuseria, J. Chem. Phys. 110, 5029 (1999)

    Deriv               =              1
    GGA                 =           TRUE
    Meta                =          FALSE

    Exchange Hybrid     =           TRUE
    MP2 Hybrid          =          FALSE

   => Exchange Functionals <=

    0.7500   Perdew, Burke & Ernzerhof

   => Exact (HF) Exchange <=

    0.2500               HF 

   => Correlation Functionals <=

    1.0000   Perdew, Burke & Ernzerhof

   => Molecular Quadrature <=

    Radial Scheme          =       TREUTLER
    Pruning Scheme         =           FLAT
    Nuclear Scheme         =       TREUTLER

    BS radius alpha        =              1
    Pruning alpha          =              1
    Radial Points          =             75
    Spherical Points       =            302
    Total Points           =         472043
    Total Blocks           =           3452
    Max Points             =            256
    Max Functions          =            290


  -Total Gradient:
     Atom            X                  Y                   Z
    ------   -----------------  -----------------  -----------------
       1       -0.000732380178    -0.000001262528    -0.000640604441
       2        0.001509899602    -0.001572633713     0.000962063270
       3        0.001504267488     0.001577442839     0.000964454243
       4       -0.001316949347    -0.001767129680    -0.000912672763
       5       -0.001316859503     0.001763463969    -0.000909116186
       6       -0.001956663518     0.000002801537     0.000903473004
       7        0.003053782617     0.000000639120     0.000823790150
       8       -0.000001230670    -0.000001555313     0.001111196376
       9       -0.000267422889     0.000584240099    -0.001010276361
      10       -0.000008253495     0.000016214964    -0.000258760025
      11       -0.000009832852    -0.000018445574    -0.000259597287
      12       -0.000268887001    -0.000582749601    -0.001010083501
      13       -0.000153717253    -0.000065617368     0.000199630517
      14        0.000271269300     0.000489687559     0.000782315979
      15        0.000271936976    -0.000490792846     0.000784992385
      16       -0.000157173771     0.000067019161     0.000199850848
      17       -0.000064301713     0.000001076687    -0.000203507800
      18        0.000511185321     0.000001606404    -0.000782604101
      19       -0.000149990276     0.000018416624    -0.000123004226
      20       -0.000553504566    -0.000002233390    -0.000495495296
      21       -0.000148304408    -0.000020194147    -0.000122063058


*** tstop() called on thinkpad at Sat Jul 10 12:48:44 2021
Module time:
	user time   =      38.68 seconds =       0.64 minutes
	system time =       0.31 seconds =       0.01 minutes
	total time  =         11 seconds =       0.18 minutes
Total time:
	user time   =     247.90 seconds =       4.13 minutes
	system time =       3.05 seconds =       0.05 minutes
	total time  =         73 seconds =       1.22 minutes

			-----------------------------------------
			 OPTKING 2.0: for geometry optimizations 
			  - R.A. King,  Bethel University        
			-----------------------------------------

	Previous internal coordinate definitions found.
	---Fragment 1 Geometry and Gradient---
	 C           1.9378022212        0.0001169780       -0.5983071993
	 C           0.5713518076       -2.3701559336        0.3249887854
	 C           0.5713254333        2.3700897365        0.3258130486
	 C          -2.2189807889       -2.3786784074       -0.4069952510
	 C          -2.2190049373        2.3788200403       -0.4061567340
	 C          -3.5576630530       -0.0000859687        0.5205467295
	 C           4.7097578480       -0.0000847887        0.1818260010
	 H           1.8517304735        0.0004664443       -2.6716936832
	 H           0.7330647990       -2.4570344524        2.3897694103
	 H           1.5136899684       -4.0570676615       -0.4161121644
	 H           1.5136273294        4.0572353794       -0.4147815717
	 H           0.7330503419        2.4563180389        2.3906195334
	 H          -3.1508966167       -4.0666578150        0.3409043182
	 H          -2.3748497574       -2.4777276235       -2.4699518379
	 H          -2.3748515243        2.4785564844       -2.4690748491
	 H          -3.1509855627        4.0665312450        0.3422905182
	 H          -5.5324955187        0.0000324014       -0.0928066168
	 H          -3.5749326216       -0.0004289074        2.5919562203
	 H           5.6898521093        1.6716411079       -0.5339591266
	 H           4.8799496494       -0.0006905280        2.2416954478
	 H           5.6898461021       -1.6714319731       -0.5348706180
	            -0.0007323802       -0.0000012625       -0.0006406044
	             0.0015098996       -0.0015726337        0.0009620633
	             0.0015042675        0.0015774428        0.0009644542
	            -0.0013169493       -0.0017671297       -0.0009126728
	            -0.0013168595        0.0017634640       -0.0009091162
	            -0.0019566635        0.0000028015        0.0009034730
	             0.0030537826        0.0000006391        0.0008237901
	            -0.0000012307       -0.0000015553        0.0011111964
	            -0.0002674229        0.0005842401       -0.0010102764
	            -0.0000082535        0.0000162150       -0.0002587600
	            -0.0000098329       -0.0000184456       -0.0002595973
	            -0.0002688870       -0.0005827496       -0.0010100835
	            -0.0001537173       -0.0000656174        0.0001996305
	             0.0002712693        0.0004896876        0.0007823160
	             0.0002719370       -0.0004907928        0.0007849924
	            -0.0001571738        0.0000670192        0.0001998508
	            -0.0000643017        0.0000010767       -0.0002035078
	             0.0005111853        0.0000016064       -0.0007826041
	            -0.0001499903        0.0000184166       -0.0001230042
	            -0.0005535046       -0.0000022334       -0.0004954953
	            -0.0001483044       -0.0000201941       -0.0001220631

	---Fragment 1 Intrafragment Coordinates---
	 - Coordinate -           - BOHR/RAD -       - ANG/DEG -
	 R(1,2)           =         2.887535	       1.528017
	 R(1,3)           =         2.887564	       1.528033
	 R(1,7)           =         2.879643	       1.523842
	 R(1,8)           =         2.075172	       1.098134
	 R(2,4)           =         2.884758	       1.526548
	 R(2,9)           =         2.072925	       1.096945
	 R(2,10)          =         2.069518	       1.095142
	 R(3,5)           =         2.884753	       1.526546
	 R(3,11)          =         2.069510	       1.095138
	 R(3,12)          =         2.072925	       1.096944
	 R(4,6)           =         2.882726	       1.525473
	 R(4,13)          =         2.068114	       1.094399
	 R(4,14)          =         2.071206	       1.096035
	 R(5,6)           =         2.882703	       1.525461
	 R(5,15)          =         2.071199	       1.096031
	 R(5,16)          =         2.068122	       1.094403
	 R(6,17)          =         2.067889	       1.094280
	 R(6,18)          =         2.071482	       1.096181
	 R(7,19)          =         2.065817	       1.093183
	 R(7,20)          =         2.066888	       1.093750
	 R(7,21)          =         2.065824	       1.093187
	 B(1,2,4)         =         1.959538	     112.273277
	 B(1,2,9)         =         1.892288	     108.420120
	 B(1,2,10)        =         1.916780	     109.823399
	 B(1,3,5)         =         1.959531	     112.272857
	 B(1,3,11)        =         1.916765	     109.822541
	 B(1,3,12)        =         1.892309	     108.421322
	 B(1,7,19)        =         1.942031	     111.270208
	 B(1,7,20)        =         1.927573	     110.441810
	 B(1,7,21)        =         1.942021	     111.269585
	 B(2,1,3)         =         1.925647	     110.331462
	 B(2,1,7)         =         1.948562	     111.644373
	 B(2,1,8)         =         1.875476	     107.456856
	 B(2,4,6)         =         1.944536	     111.413680
	 B(2,4,13)        =         1.924646	     110.274088
	 B(2,4,14)        =         1.902511	     109.005832
	 B(3,1,7)         =         1.948608	     111.647004
	 B(3,1,8)         =         1.875481	     107.457173
	 B(3,5,6)         =         1.944547	     111.414333
	 B(3,5,15)        =         1.902496	     109.004983
	 B(3,5,16)        =         1.924670	     110.275442
	 B(4,2,9)         =         1.905066	     109.152257
	 B(4,2,10)        =         1.925341	     110.313921
	 B(4,6,5)         =         1.941030	     111.212854
	 B(4,6,17)        =         1.926334	     110.370789
	 B(4,6,18)        =         1.902318	     108.994801
	 B(5,3,11)        =         1.925330	     110.313266
	 B(5,3,12)        =         1.905069	     109.152399
	 B(5,6,17)        =         1.926319	     110.369962
	 B(5,6,18)        =         1.902302	     108.993879
	 B(6,4,13)        =         1.926065	     110.355394
	 B(6,4,14)        =         1.901796	     108.964903
[...]
	 B(6,5,16)        =         1.926325	     110.370286
	 B(7,1,8)         =         1.888070	     108.178462
	 B(9,2,10)        =         1.856064	     106.344643
	 B(11,3,12)       =         1.856064	     106.344647
	 B(13,4,14)       =         1.857333	     106.417326
	 B(15,5,16)       =         1.857331	     106.417252
	 B(17,6,18)       =         1.858689	     106.495028
	 B(19,7,20)       =         1.878616	     107.636745
	 B(19,7,21)       =         1.882912	     107.882886
	 B(20,7,21)       =         1.878616	     107.636774
	 D(1,2,4,6)       =        -0.963549	     -55.207274
	 D(1,2,4,13)      =        -3.108019	    -178.076360
	 D(1,2,4,14)      =         1.141180	      65.384802
	 D(1,3,5,6)       =         0.963553	      55.207548
	 D(1,3,5,15)      =        -1.141176	     -65.384586
	 D(1,3,5,16)      =         3.108023	     178.076589
	 D(2,1,3,5)       =        -0.951018	     -54.489309
	 D(2,1,3,11)      =        -3.100108	    -177.623126
	 D(2,1,3,12)      =         1.160039	      66.465352
	 D(2,1,7,19)      =         3.112693	     178.344200
	 D(2,1,7,20)      =        -1.080549	     -61.910872
	 D(2,1,7,21)      =         1.009394	      57.834026
	 D(2,4,6,5)       =         0.954391	      54.682568
	 D(2,4,6,17)      =         3.098370	     177.523504
	 D(2,4,6,18)      =        -1.147835	     -65.766121
	 D(3,1,2,4)       =         0.951015	      54.489158
	 D(3,1,2,9)       =        -1.160043	     -66.465584
	 D(3,1,2,10)      =         3.100105	     177.622935
	 D(3,1,7,19)      =        -1.009292	     -57.828160
	 D(3,1,7,20)      =         1.080651	      61.916768
	 D(3,1,7,21)      =        -3.112591	    -178.338335
	 D(3,5,6,4)       =        -0.954393	     -54.682695
	 D(3,5,6,17)      =        -3.098373	    -177.523668
	 D(3,5,6,18)      =         1.147833	      65.765978
	 D(4,2,1,7)       =         3.125972	     179.105002
	 D(4,2,1,8)       =        -1.089277	     -62.410980
	 D(4,6,5,15)      =         1.150556	      65.921997
	 D(4,6,5,16)      =        -3.097333	    -177.464135
	 D(5,3,1,7)       =        -3.125975	    -179.105166
	 D(5,3,1,8)       =         1.089276	      62.410923
	 D(5,6,4,13)      =         3.097332	     177.464032
	 D(5,6,4,14)      =        -1.150556	     -65.922027
	 D(6,4,2,9)       =         1.140556	      65.349048
	 D(6,4,2,10)      =        -3.107684	    -178.057193
	 D(6,5,3,11)      =         3.107690	     178.057535
	 D(6,5,3,12)      =        -1.140550	     -65.348715
	 D(7,1,2,9)       =         1.014914	      58.150260
	 D(7,1,2,10)      =        -1.008123	     -57.761222
	 D(7,1,3,11)      =         1.008120	      57.761017
	 D(7,1,3,12)      =        -1.014918	     -58.150505
	 D(8,1,2,9)       =         3.082850	     176.634278
	 D(8,1,2,10)      =         1.059813	      60.722797
	 D(8,1,3,11)      =        -1.059814	     -60.722895
	 D(8,1,3,12)      =        -3.082852	    -176.634416
	 D(8,1,7,19)      =         1.051699	      60.257921
	 D(8,1,7,20)      =        -3.141543	    -179.997151
	 D(8,1,7,21)      =        -1.051600	     -60.252253
	 D(9,2,4,13)      =        -1.003914	     -57.520038
	 D(9,2,4,14)      =        -3.037900	    -174.058876
	 D(10,2,4,13)     =         1.031031	      59.073721
	 D(10,2,4,14)     =        -1.002956	     -57.465117
	 D(11,3,5,15)     =         1.002960	      57.465401
	 D(11,3,5,16)     =        -1.031026	     -59.073423
	 D(12,3,5,15)     =         3.037905	     174.059151
	 D(12,3,5,16)     =         1.003919	      57.520327
	 D(13,4,6,17)     =        -1.041875	     -59.695032
	 D(13,4,6,18)     =         0.995105	      57.015342
	 D(14,4,6,17)     =         0.993422	      56.918909
	 D(14,4,6,18)     =         3.030403	     173.629283
	 D(15,5,6,17)     =        -0.993424	     -56.918976
	 D(15,5,6,18)     =        -3.030403	    -173.629330
	 D(16,5,6,17)     =         1.041872	      59.694892
	 D(16,5,6,18)     =        -0.995108	     -57.015461

	Current energy   :      -274.9475277319

	Energy change for the previous step:
		Projected    :        -0.0000058827
		Actual       :        -0.0000011177
	Energy ratio indicates iffy step: Trust radius decreased to 3.125e-02.


	Performing BFGS update.
	Previous computed or guess Hessian on step 1.
	Steps to be used in Hessian update: 3 2
	Taking RFO optimization step.
	Going to follow RFO solution 1.
	Using RFO vector 1.
	Norm of target step-size    0.00132
	Projected energy change by RFO approximation:        -0.0000000111

	Back-transformation to cartesian coordinates...
	Successfully converged to displaced geometry.

	--- Internal Coordinate Step in ANG or DEG, aJ/ANG or AJ/DEG ---
	 ---------------------------------------------------------------------------
	   Coordinate                Previous        Force       Change         New 
	   ----------                --------       ------       ------       ------
	    1 R(1,2)          =      1.526085     0.000363     0.000084     1.526169
	    2 R(1,3)          =      1.526085     0.000364     0.000084     1.526170
	    3 R(1,7)          =      1.519610    -0.000537    -0.000128     1.519482
	    4 R(1,8)          =      1.099965    -0.000162    -0.000033     1.099932
	    5 R(2,4)          =      1.522949    -0.000009    -0.000010     1.522939
	    6 R(2,9)          =      1.098745    -0.000191    -0.000041     1.098704
	    7 R(2,10)         =      1.095278     0.000004     0.000002     1.095280
	    8 R(3,5)          =      1.522949    -0.000010    -0.000009     1.522940
	    9 R(3,11)         =      1.095278     0.000003     0.000002     1.095280
	   10 R(3,12)         =      1.098745    -0.000190    -0.000040     1.098704
	   11 R(4,6)          =      1.522771     0.000262     0.000057     1.522828
	   12 R(4,13)         =      1.094310     0.000071     0.000016     1.094325
	   13 R(4,14)         =      1.097446    -0.000124    -0.000027     1.097419
	   14 R(5,6)          =      1.522772     0.000260     0.000056     1.522828
	   15 R(5,15)         =      1.097446    -0.000126    -0.000027     1.097419
	   16 R(5,16)         =      1.094310     0.000070     0.000015     1.094325
	   17 R(6,17)         =      1.094288     0.000003     0.000002     1.094290
	   18 R(6,18)         =      1.097523    -0.000129    -0.000029     1.097494
	   19 R(7,19)         =      1.093400    -0.000042    -0.000013     1.093387
	   20 R(7,20)         =      1.094726    -0.000014    -0.000009     1.094717
	   21 R(7,21)         =      1.093400    -0.000043    -0.000013     1.093387
	   22 B(1,2,4)        =    112.254075    -0.000000    -0.003045   112.251030
	   23 B(1,2,9)        =    108.601121     0.000000    -0.000021   108.601099
	   24 B(1,2,10)       =    109.826817    -0.000001    -0.005332   109.821484
	   25 B(1,3,5)        =    112.254032    -0.000000    -0.002979   112.251052
	   26 B(1,3,11)       =    109.826883    -0.000001    -0.005467   109.821416
	   27 B(1,3,12)       =    108.601118     0.000000     0.000051   108.601169
	   28 B(1,7,19)       =    111.394032     0.000000     0.002829   111.396861
	   29 B(1,7,20)       =    110.723750     0.000002     0.010861   110.734612
	   30 B(1,7,21)       =    111.393930     0.000000     0.002972   111.396902
	   31 B(2,1,3)        =    110.211049    -0.000000    -0.007977   110.203072
	   32 B(2,1,7)        =    111.614012    -0.000000    -0.001303   111.612709
	   33 B(2,1,8)        =    107.513686     0.000000     0.001666   107.515352
	   34 B(2,4,6)        =    111.398812     0.000000     0.001812   111.400624
	   35 B(2,4,13)       =    110.217439    -0.000000     0.000147   110.217587
	   36 B(2,4,14)       =    109.159461     0.000000     0.001007   109.160468
	   37 B(3,1,7)        =    111.613989    -0.000000    -0.001170   111.612819
	   38 B(3,1,8)        =    107.513536     0.000000     0.001895   107.515431
	   39 B(3,5,6)        =    111.398729     0.000000     0.001965   111.400694
	   40 B(3,5,15)       =    109.159562     0.000000     0.000880   109.160442
	   41 B(3,5,16)       =    110.217470    -0.000000     0.000146   110.217616
	   42 B(4,2,9)        =    109.291762     0.000000     0.004902   109.296665
	   43 B(4,2,10)       =    110.330963     0.000001     0.004584   110.335547
	   44 B(4,6,5)        =    111.192975    -0.000000    -0.000449   111.192527
	   45 B(4,6,17)       =    110.373794     0.000000     0.001082   110.374876
	   46 B(4,6,18)       =    109.138594    -0.000000    -0.000490   109.138104
	   47 B(5,3,11)       =    110.330981     0.000001     0.004564   110.335546
	   48 B(5,3,12)       =    109.291722     0.000000     0.004936   109.296658
	   49 B(5,6,17)       =    110.373730     0.000000     0.001174   110.374905
	   50 B(5,6,18)       =    109.138620    -0.000000    -0.000530   109.138090
	   51 B(6,4,13)       =    110.370293     0.000000     0.002886   110.373178
	   52 B(6,4,14)       =    109.138139    -0.000000    -0.002397   109.135742
	   53 B(6,5,15)       =    109.138175    -0.000000    -0.002471   109.135704
	   54 B(6,5,16)       =    110.370286     0.000000     0.002869   110.373156
	   55 B(7,1,8)        =    108.178462     0.000000     0.007485   108.185947
	   56 B(9,2,10)       =    106.344643    -0.000000    -0.000973   106.343670
	   57 B(11,3,12)      =    106.344647    -0.000000    -0.000992   106.343655
	   58 B(13,4,14)      =    106.417326    -0.000000    -0.003755   106.413571
	   59 B(15,5,16)      =    106.417252    -0.000000    -0.003698   106.413554
	   60 B(17,6,18)      =    106.495028    -0.000000    -0.000839   106.494189
	   61 B(19,7,20)      =    107.636745    -0.000001    -0.006405   107.630340
	   62 B(19,7,21)      =    107.882886    -0.000001    -0.004793   107.878093
	   63 B(20,7,21)      =    107.636774    -0.000001    -0.006446   107.630328
	   64 D(1,2,4,6)      =    -55.207274    -0.000000    -0.006750   -55.214024
	   65 D(1,2,4,13)     =   -178.076360    -0.000000    -0.011794  -178.088154
	   66 D(1,2,4,14)     =     65.384802    -0.000000    -0.007925    65.376877
	   67 D(1,3,5,6)      =     55.207548     0.000000     0.006241    55.213789
	   68 D(1,3,5,15)     =    -65.384586     0.000000     0.007494   -65.377092
	   69 D(1,3,5,16)     =    178.076589     0.000000     0.011368   178.087958
	   70 D(2,1,3,5)      =    -54.489309    -0.000000    -0.015186   -54.504494
	   71 D(2,1,3,11)     =   -177.623126    -0.000000    -0.015020  -177.638146
	   72 D(2,1,3,12)     =     66.465352     0.000000    -0.010859    66.454494
	   73 D(2,1,7,19)     =    178.344200     0.000000    -0.000078   178.344122
	   74 D(2,1,7,20)     =    -61.910872     0.000000     0.000966   -61.909906
	   75 D(2,1,7,21)     =     57.834026     0.000000     0.002052    57.836078
	   76 D(2,4,6,5)      =     54.682568    -0.000000    -0.006522    54.676047
	   77 D(2,4,6,17)     =    177.523504     0.000000    -0.004574   177.518930
	   78 D(2,4,6,18)     =    -65.766121     0.000000    -0.005258   -65.771379
	   79 D(3,1,2,4)      =     54.489158     0.000000     0.015465    54.504623
	   80 D(3,1,2,9)      =    -66.465584    -0.000000     0.011271   -66.454312
	   81 D(3,1,2,10)     =    177.622935     0.000000     0.015376   177.638311
	   82 D(3,1,7,19)     =    -57.828160    -0.000000    -0.012339   -57.840500
	   83 D(3,1,7,20)     =     61.916768    -0.000000    -0.011295    61.905473
	   84 D(3,1,7,21)     =   -178.338335    -0.000000    -0.010209  -178.348544
	   85 D(3,5,6,4)      =    -54.682695     0.000000     0.006749   -54.675947
	   86 D(3,5,6,17)     =   -177.523668    -0.000000     0.004855  -177.518813
	   87 D(3,5,6,18)     =     65.765978    -0.000000     0.005509    65.771488
	   88 D(4,2,1,7)      =    179.105002    -0.000000     0.007145   179.112147
	   89 D(4,2,1,8)      =    -62.410980     0.000000     0.016559   -62.394421
	   90 D(4,6,5,15)     =     65.921997     0.000000     0.007463    65.929459
	   91 D(4,6,5,16)     =   -177.464135     0.000000     0.003175  -177.460960
	   92 D(5,3,1,7)      =   -179.105166     0.000000    -0.006789  -179.111955
	   93 D(5,3,1,8)      =     62.410923    -0.000000    -0.016422    62.394501
	   94 D(5,6,4,13)     =    177.464032    -0.000000    -0.003040   177.460992
	   95 D(5,6,4,14)     =    -65.922027    -0.000000    -0.007345   -65.929372
	   96 D(6,4,2,9)      =     65.349048    -0.000000    -0.005408    65.343640
	   97 D(6,4,2,10)     =   -178.057193     0.000000    -0.001052  -178.058245
	   98 D(6,5,3,11)     =    178.057535    -0.000000     0.000400   178.057935
	   99 D(6,5,3,12)     =    -65.348715     0.000000     0.004742   -65.343972
	  100 D(7,1,2,9)      =     58.150260    -0.000000     0.002951    58.153211
	  101 D(7,1,2,10)     =    -57.761222    -0.000000     0.007056   -57.754166
	  102 D(7,1,3,11)     =     57.761017     0.000000    -0.006623    57.754394
	  103 D(7,1,3,12)     =    -58.150505     0.000000    -0.002462   -58.152967
	  104 D(8,1,2,9)      =    176.634278    -0.000000     0.012365   176.646643
	  105 D(8,1,2,10)     =     60.722797     0.000000     0.016470    60.739266
	  106 D(8,1,3,11)     =    -60.722895    -0.000000    -0.016256   -60.739151
	  107 D(8,1,3,12)     =   -176.634416     0.000000    -0.012095  -176.646511
	  108 D(8,1,7,19)     =     60.257921    -0.000000    -0.006030    60.251892
	  109 D(8,1,7,20)     =   -179.997151    -0.000000    -0.004985  -180.002136
	  110 D(8,1,7,21)     =    -60.252253     0.000000    -0.003899   -60.256152
	  111 D(9,2,4,13)     =    -57.520038    -0.000000    -0.010452   -57.530490
	  112 D(9,2,4,14)     =   -174.058876    -0.000000    -0.006583  -174.065460
	  113 D(10,2,4,13)    =     59.073721     0.000000    -0.006096    59.067625
	  114 D(10,2,4,14)    =    -57.465117     0.000000    -0.002227   -57.467344
	  115 D(11,3,5,15)    =     57.465401    -0.000000     0.001654    57.467055
	  116 D(11,3,5,16)    =    -59.073423    -0.000000     0.005528   -59.067895
	  117 D(12,3,5,15)    =    174.059151     0.000000     0.005996   174.065147
	  118 D(12,3,5,16)    =     57.520327     0.000000     0.009870    57.530197
	  119 D(13,4,6,17)    =    -59.695032     0.000000    -0.001093   -59.696125
	  120 D(13,4,6,18)    =     57.015342     0.000000    -0.001777    57.013566
	  121 D(14,4,6,17)    =     56.918909    -0.000000    -0.005398    56.913511
	  122 D(14,4,6,18)    =    173.629283    -0.000000    -0.006082   173.623202
	  123 D(15,5,6,17)    =    -56.918976     0.000000     0.005569   -56.913407
	  124 D(15,5,6,18)    =   -173.629330     0.000000     0.006223  -173.623106
	  125 D(16,5,6,17)    =     59.694892    -0.000000     0.001281    59.696173
	  126 D(16,5,6,18)    =    -57.015461    -0.000000     0.001935   -57.013526
	 ---------------------------------------------------------------------------
	Successfully symmetrized geometry.

  ==> Convergence Check <==

  Measures of convergence in internal coordinates in au.
  Criteria marked as inactive (o), active & met (*), and active & unmet ( ).
  ---------------------------------------------------------------------------------------------
   Step     Total Energy     Delta E     MAX Force     RMS Force      MAX Disp      RMS Disp   
  ---------------------------------------------------------------------------------------------
    Convergence Criteria    1.00e-06 *    3.00e-04 *             o    1.20e-03 *             o
  ---------------------------------------------------------------------------------------------
      4    -274.94752773   -1.12e-06      6.52e-05 *    1.08e-05 o    2.89e-04 *    1.17e-04 o  ~
  ---------------------------------------------------------------------------------------------


  **** Optimization is complete! (in 4 steps) ****

  ==> Optimization Summary <==

  Measures of convergence in internal coordinates in au.
  --------------------------------------------------------------------------------------------------------------- ~
   Step         Total Energy             Delta E       MAX Force       RMS Force        MAX Disp        RMS Disp  ~
  --------------------------------------------------------------------------------------------------------------- ~
      1    -274.946664448648   -274.946664448648      0.00364804      0.00107929      0.05295587      0.02256799  ~
      2    -274.947464932464     -0.000800483816      0.00214000      0.00046082      0.01070802      0.00365370  ~
      3    -274.947526614140     -0.000061681675      0.00017547      0.00005128      0.00232325      0.00107126  ~
      4    -274.947527731863     -0.000001117724      0.00006522      0.00001080      0.00028901      0.00011750  ~
  --------------------------------------------------------------------------------------------------------------- ~

	Writing optimization data to binary file.
	Final energy is   -274.9475277318633
	Final (previous) structure:
	Cartesian Geometry (in Angstrom)
	    C     1.0234635301  -0.0007742584  -0.3188737608
	    C     0.3017073042  -1.2512272050   0.1754664506
	    C     0.3015407335   1.2521760054   0.1688550931
	    C    -1.1716680006  -1.2570432683  -0.2098978696
	    C    -1.1718340143   1.2557610872  -0.2165376958
	    C    -1.8784232212   0.0006089036   0.2775860010
	    C     2.4864421419   0.0004088613   0.0921086014
	    H     0.9757292467  -0.0036779398  -1.4177990159
	    H     0.3909380472  -1.2979228946   1.2695859885
	    H     0.8001658533  -2.1458479188  -0.2128965357
	    H     0.7998815010   2.1448001810  -0.2242245068
	    H     0.3907613197   1.3046596032   1.2627128354
	    H    -1.6634660762  -2.1493772943   0.1893364041
	    H    -1.2580192071  -1.3177976373  -1.3022530632
	    H    -1.2581920758   1.3107307698  -1.3091990966
	    H    -1.6637514674   2.1501274299   0.1779740826
	    H    -2.9238724708  -0.0003137287  -0.0456811441
	    H    -1.8915895205   0.0035075693   1.3750264201
	    H     3.0069628066   0.8833885032  -0.2885857215
	    H     2.5824721248   0.0032426413   1.1826107493
	    H     3.0071038496  -0.8844491666  -0.2840048623
	Saving final (previous) structure.
			--------------------------
			 OPTKING Finished Execution 
			--------------------------

    Final optimized geometry and variables:
    Molecular point group: c1
    Full point group: C1

    Geometry (in Angstrom), charge = 0, multiplicity = 1:

    C            1.023463534129    -0.000774258430    -0.318873762051
    C            0.301707305354    -1.251227209922     0.175466451331
    C            0.301540734656     1.252176010295     0.168855093730
    C           -1.171668005246    -1.257043273265    -0.209897870441
    C           -1.171834018890     1.255761092119    -0.216537696602
    C           -1.878423228556     0.000608903602     0.277586002087
    C            2.486442151647     0.000408861321     0.092108601772
    H            0.975729250571    -0.003677939808    -1.417799021490
    H            0.390938048688    -1.297922899727     1.269585993467
    H            0.800165856456    -2.145847927210    -0.212896536522
    H            0.799881504119     2.144800189448    -0.224224507728
    H            0.390761321241     1.304659608366     1.262712840358
    H           -1.663466082703    -2.149377302789     0.189336404836
    H           -1.258019212061    -1.317797642459    -1.302253068331
    H           -1.258192080708     1.310730774993    -1.309199101735
    H           -1.663751473933     2.150127438339     0.177974083256
    H           -2.923872482243    -0.000313728704    -0.045681144296
    H           -1.891589527954     0.003507569284     1.375026425483
    H            3.006962818433     0.883388506657    -0.288585722642
    H            2.582472134966     0.003242641330     1.182610753979
    H            3.007103861463    -0.884449170069    -0.284004863403

	Removing binary optimization data file.
	Cleaning optimization helper files.

    Psi4 stopped on: Saturday, 10 July 2021 12:49PM
    Psi4 wall time for execution: 0:02:23.32

*** Psi4 exiting successfully. Buy a developer a beer!
