
    -----------------------------------------------------------------------
          Psi4: An Open-Source Ab Initio Electronic Structure Package
                               Psi4 1.3.2 release

                         Git: Rev {} zzzzzzz 


    R. M. Parrish, L. A. Burns, D. G. A. Smith, A. C. Simmonett,
    A. E. DePrince III, E. G. Hohenstein, U. Bozkaya, A. Yu. Sokolov,
    R. Di Remigio, R. M. Richard, J. F. Gonthier, A. M. James,
    H. R. McAlexander, A. Kumar, M. Saitow, X. Wang, B. P. Pritchard,
    P. Verma, H. F. Schaefer III, K. Patkowski, R. A. King, E. F. Valeev,
    F. A. Evangelista, J. M. Turney, T. D. Crawford, and C. D. Sherrill,
    J. Chem. Theory Comput. 13(7) pp 3185--3197 (2017).
    (doi: 10.1021/acs.jctc.7b00174)


                         Additional Contributions by
    P. Kraus, H. Kruse, M. H. Lechner, M. C. Schieber, R. A. Shaw,
    A. Alenaizan, R. Galvelis, Z. L. Glick, S. Lehtola, and J. P. Misiewicz

    -----------------------------------------------------------------------


    Psi4 started on: Saturday, 10 July 2021 01:45PM

    Process ID: 1359243
    Host:       thinkpad
    PSIDATADIR: /usr/share/psi4
    Memory:     500.0 MiB
    Threads:    4
    
  ==> Input File <==

--------------------------------------------------------------------------
memory 8 gb

molecule {
0 1
 C          0.9640749498        0.0298194135       -0.3436238735
 C          0.3229229995       -1.3116042271        0.0467725839
 C          0.2750391194        1.1632854683        0.4143856489
 C         -1.1622996913       -1.1598447135        0.3971065312
 C         -1.1833937624        1.3111682118       -0.0359705012
 C         -1.7913527381       -0.0418232326       -0.4259288631
 C          2.4654738100        0.0107701925       -0.0721029547
 H          0.8143086663        0.2000516978       -1.4151296092
 H          0.8525740527       -1.7301794783        0.9052759220
 H          0.4375703166       -2.0150551232       -0.7805163774
 H          0.8076623924        2.1019505628        0.2499026548
 H          0.3193664863        0.9463982201        1.4835194173
 H         -1.2769719125       -0.9232758766        1.4566342259
 H         -1.6826405852       -2.1019802291        0.2146484910
 H         -1.2398862559        1.9894556019       -0.8896282873
 H         -1.7634700505        1.7582574388        0.7737653909
 H         -1.6149677856       -0.2423251546       -1.4845157977
 H         -2.8718723393       -0.0209682548       -0.2726229304
 H          2.9298914763        0.9325520789       -0.4161796614
 H          2.6584734218       -0.0922347918        0.9940325645
 H          2.9352787611       -0.8237527897       -0.5884586311
}

set basis def2-tzvp
optimize('pbe0')
--------------------------------------------------------------------------

  Memory set to   7.451 GiB by Python driver.
gradient() will perform analytic gradient computation.

*** tstart() called on thinkpad
*** at Sat Jul 10 13:45:14 2021

   => Loading Basis Set <=

    Name: DEF2-TZVP
    Role: ORBITAL
    Keyword: BASIS
    atoms 1-7  entry C          line   123 file /usr/share/psi4/basis/def2-tzvp.gbs 
    atoms 8-21 entry H          line    15 file /usr/share/psi4/basis/def2-tzvp.gbs 


         ---------------------------------------------------------
                                   SCF
               by Justin Turney, Rob Parrish, Andy Simmonett
                          and Daniel G. A. Smith
                              RKS Reference
                        4 Threads,   7629 MiB Core
         ---------------------------------------------------------

  ==> Geometry <==

    Molecular point group: c1
    Full point group: C1

    Geometry (in Angstrom), charge = 0, multiplicity = 1:

       Center              X                  Y                   Z               Mass       
    ------------   -----------------  -----------------  -----------------  -----------------
         C            0.964063666167     0.029819595938    -0.343625867995    12.000000000000
         C            0.322911715867    -1.311604044662     0.046770589405    12.000000000000
         C            0.275027835767     1.163285650738     0.414383654405    12.000000000000
         C           -1.162310974933    -1.159844531062     0.397104536705    12.000000000000
         C           -1.183405046033     1.311168394238    -0.035972495695    12.000000000000
         C           -1.791364021733    -0.041823050162    -0.425930857595    12.000000000000
         C            2.465462526367     0.010770374938    -0.072104949195    12.000000000000
         H            0.814297382667     0.200051880238    -1.415131603695     1.007825032230
         H            0.852562769067    -1.730179295862     0.905273927505     1.007825032230
         H            0.437559032967    -2.015054940762    -0.780518371895     1.007825032230
         H            0.807651108767     2.101950745238     0.249900660305     1.007825032230
         H            0.319355202667     0.946398402538     1.483517422805     1.007825032230
         H           -1.276983196133    -0.923275694162     1.456632231405     1.007825032230
         H           -1.682651868833    -2.101980046662     0.214646496505     1.007825032230
         H           -1.239897539533     1.989455784338    -0.889630281795     1.007825032230
         H           -1.763481334133     1.758257621238     0.773763396405     1.007825032230
         H           -1.614979069233    -0.242324972162    -1.484517792195     1.007825032230
         H           -2.871883622933    -0.020968072362    -0.272624924895     1.007825032230
         H            2.929880192667     0.932552261338    -0.416181655895     1.007825032230
         H            2.658462138167    -0.092234609362     0.994030570005     1.007825032230
         H            2.935267477467    -0.823752607262    -0.588460625595     1.007825032230

  Running in c1 symmetry.

  Rotational constants: A =      0.13936  B =      0.07474  C =      0.05528 [cm^-1]
  Rotational constants: A =   4177.98341  B =   2240.61800  C =   1657.16271 [MHz]
  Nuclear repulsion =  330.987750888830817

  Charge       = 0
  Multiplicity = 1
  Electrons    = 56
  Nalpha       = 28
  Nbeta        = 28

  ==> Algorithm <==

  SCF Algorithm Type is DF.
  DIIS enabled.
  MOM disabled.
  Fractional occupation disabled.
  Guess Type is SAD.
  Energy threshold   = 1.00e-08
  Density threshold  = 1.00e-08
  Integral threshold = 0.00e+00

  ==> Primary Basis <==

  Basis Set: DEF2-TZVP
    Blend: DEF2-TZVP
    Number of shells: 133
    Number of basis function: 301
    Number of Cartesian functions: 336
    Spherical Harmonics?: true
    Max angular momentum: 3

  ==> DFT Potential <==

   => Composite Functional: PBE0 <= 

    PBE0 Hyb-GGA Exchange-Correlation Functional

    C. Adamo and V. Barone, J. Chem. Phys. 110, 6158 (1999)
    M. Ernzerhof and G. E. Scuseria, J. Chem. Phys. 110, 5029 (1999)

    Deriv               =              1
    GGA                 =           TRUE
    Meta                =          FALSE

    Exchange Hybrid     =           TRUE
    MP2 Hybrid          =          FALSE

   => Exchange Functionals <=

    0.7500   Perdew, Burke & Ernzerhof

   => Exact (HF) Exchange <=

    0.2500               HF 

   => Correlation Functionals <=

    1.0000   Perdew, Burke & Ernzerhof

   => Molecular Quadrature <=

    Radial Scheme          =       TREUTLER
    Pruning Scheme         =           FLAT
    Nuclear Scheme         =       TREUTLER

    BS radius alpha        =              1
    Pruning alpha          =              1
    Radial Points          =             75
    Spherical Points       =            302
    Total Points           =         472038
    Total Blocks           =           3480
    Max Points             =            256
    Max Functions          =            291

   => Loading Basis Set <=

    Name: (DEF2-TZVP AUX)
    Role: JKFIT
    Keyword: DF_BASIS_SCF
    atoms 1-7  entry C          line   203 file /usr/share/psi4/basis/def2-tzvp-jkfit.gbs 
    atoms 8-21 entry H          line    23 file /usr/share/psi4/basis/def2-tzvp-jkfit.gbs 

  ==> Pre-Iterations <==

   -------------------------------------------------------
    Irrep   Nso     Nmo     Nalpha   Nbeta   Ndocc  Nsocc
   -------------------------------------------------------
     A        301     301       0       0       0       0
   -------------------------------------------------------
    Total     301     301      28      28      28       0
   -------------------------------------------------------

  ==> Integral Setup <==

  DFHelper Memory: AOs need 0.534 GiB; user supplied 2.611 GiB. Using in-core AOs.

  ==> MemDFJK: Density-Fitted J/K Matrices <==

    J tasked:                   Yes
    K tasked:                   Yes
    wK tasked:                   No
    OpenMP threads:               4
    Memory [MiB]:              2673
    Algorithm:                 Core
    Schwarz Cutoff:           1E-12
    Mask sparsity (%):       2.9492
    Fitting Condition:        1E-10

   => Auxiliary Basis Set <=

  Basis Set: (DEF2-TZVP AUX)
    Blend: DEF2-TZVP-JKFIT
    Number of shells: 259
    Number of basis function: 777
    Number of Cartesian functions: 903
    Spherical Harmonics?: true
    Max angular momentum: 4

  Cached 100.0% of DFT collocation blocks in 2.977 [GiB].

  Minimum eigenvalue in the overlap matrix is 4.1470009402E-05.
  Using Symmetric Orthogonalization.

  SCF Guess: Superposition of Atomic Densities via on-the-fly atomic UHF.

  ==> Iterations <==

                           Total Energy        Delta E     RMS |[F,P]|

   @DF-RKS iter SAD:  -274.60620261347157   -2.74606e+02   0.00000e+00 
   @DF-RKS iter   1:  -274.14300260702419    4.63200e-01   4.09445e-03 DIIS
   @DF-RKS iter   2:  -273.38484050367271    7.58162e-01   5.66538e-03 DIIS
   @DF-RKS iter   3:  -274.92182836486512   -1.53699e+00   5.91083e-04 DIIS
   @DF-RKS iter   4:  -274.93361323794971   -1.17849e-02   2.75546e-04 DIIS
   @DF-RKS iter   5:  -274.93670883981673   -3.09560e-03   5.30723e-05 DIIS
   @DF-RKS iter   6:  -274.93682488527628   -1.16045e-04   7.70214e-06 DIIS
   @DF-RKS iter   7:  -274.93682747096284   -2.58569e-06   2.41230e-06 DIIS
   @DF-RKS iter   8:  -274.93682770921953   -2.38257e-07   6.75982e-07 DIIS
   @DF-RKS iter   9:  -274.93682772720558   -1.79861e-08   1.66310e-07 DIIS
   @DF-RKS iter  10:  -274.93682772842288   -1.21730e-09   4.22285e-08 DIIS
   @DF-RKS iter  11:  -274.93682772850599   -8.31051e-11   7.52327e-09 DIIS
  Energy and wave function converged.


  ==> Post-Iterations <==

    Orbital Energies [Eh]
    ---------------------

    Doubly Occupied:                                                      

       1A    -10.216195     2A    -10.208070     3A    -10.207764  
       4A    -10.207503     5A    -10.207010     6A    -10.206314  
       7A    -10.200679     8A     -0.859811     9A     -0.782697  
      10A     -0.756823    11A     -0.690991    12A     -0.627198  
      13A     -0.607774    14A     -0.536711    15A     -0.502435  
      16A     -0.478922    17A     -0.454887    18A     -0.425419  
      19A     -0.418438    20A     -0.392476    21A     -0.379703  
      22A     -0.369741    23A     -0.363679    24A     -0.354319  
      25A     -0.349748    26A     -0.306053    27A     -0.302828  
      28A     -0.300202  

    Virtual:                                                              

      29A      0.040624    30A      0.060548    31A      0.066202  
      32A      0.078764    33A      0.099612    34A      0.103006  
      35A      0.113464    36A      0.116548    37A      0.124614  
      38A      0.134957    39A      0.141848    40A      0.146126  
      41A      0.148845    42A      0.166443    43A      0.182285  
      44A      0.185662    45A      0.205025    46A      0.208596  
      47A      0.223883    48A      0.230554    49A      0.241112  
      50A      0.244118    51A      0.256123    52A      0.267951  
      53A      0.272403    54A      0.290127    55A      0.301621  
      56A      0.319859    57A      0.327934    58A      0.341049  
      59A      0.361828    60A      0.394796    61A      0.402846  
      62A      0.413113    63A      0.417584    64A      0.420282  
      65A      0.421816    66A      0.432033    67A      0.439824  
      68A      0.447185    69A      0.456558    70A      0.457367  
      71A      0.465620    72A      0.472058    73A      0.475903  
      74A      0.484680    75A      0.490689    76A      0.495898  
      77A      0.499335    78A      0.508581    79A      0.514120  
      80A      0.523545    81A      0.540851    82A      0.541633  
      83A      0.579065    84A      0.594402    85A      0.627110  
      86A      0.638673    87A      0.672341    88A      0.687268  
      89A      0.703551    90A      0.714929    91A      0.794659  
      92A      0.802860    93A      0.814014    94A      0.830545  
      95A      0.839497    96A      0.859494    97A      0.877389  
      98A      0.896109    99A      0.913285   100A      0.918436  
     101A      0.964164   102A      0.968099   103A      0.986908  
     104A      1.012777   105A      1.016844   106A      1.024840  
     107A      1.053162   108A      1.066505   109A      1.078579  
     110A      1.090018   111A      1.139496   112A      1.147000  
     113A      1.150486   114A      1.185092   115A      1.196787  
     116A      1.210622   117A      1.216421   118A      1.239631  
     119A      1.258055   120A      1.274832   121A      1.286351  
     122A      1.302038   123A      1.338704   124A      1.372110  
     125A      1.442815   126A      1.456821   127A      1.484452  
     128A      1.525682   129A      1.542714   130A      1.564147  
     131A      1.579482   132A      1.586712   133A      1.604565  
     134A      1.625906   135A      1.634630   136A      1.639488  
     137A      1.643515   138A      1.658534   139A      1.667122  
     140A      1.676688   141A      1.691961   142A      1.711891  
     143A      1.744869   144A      1.760260   145A      1.774303  
     146A      1.781620   147A      1.818831   148A      1.839917  
     149A      1.859323   150A      1.882867   151A      1.897539  
     152A      1.902924   153A      1.918386   154A      1.955239  
     155A      1.983949   156A      1.995338   157A      2.012019  
     158A      2.038752   159A      2.052688   160A      2.096799  
     161A      2.111900   162A      2.124202   163A      2.149584  
     164A      2.168146   165A      2.186939   166A      2.199395  
     167A      2.267528   168A      2.301513   169A      2.318681  
     170A      2.342911   171A      2.349716   172A      2.357695  
     173A      2.383777   174A      2.411133   175A      2.420271  
     176A      2.463137   177A      2.470716   178A      2.483563  
     179A      2.495980   180A      2.509413   181A      2.551157  
     182A      2.557208   183A      2.573868   184A      2.590427  
     185A      2.615817   186A      2.620930   187A      2.629022  
     188A      2.636481   189A      2.638361   190A      2.653812  
     191A      2.672854   192A      2.678654   193A      2.691100  
     194A      2.706024   195A      2.719412   196A      2.734133  
     197A      2.746652   198A      2.765685   199A      2.793676  
     200A      2.799358   201A      2.810971   202A      2.827720  
     203A      2.842382   204A      2.857650   205A      2.879409  
     206A      2.886856   207A      2.942760   208A      2.949195  
     209A      2.984517   210A      3.007143   211A      3.038802  
     212A      3.087472   213A      3.094811   214A      3.112191  
     215A      3.123533   216A      3.156636   217A      3.171163  
     218A      3.174743   219A      3.192583   220A      3.204296  
     221A      3.212966   222A      3.243343   223A      3.254618  
     224A      3.262773   225A      3.300582   226A      3.306412  
     227A      3.330557   228A      3.346790   229A      3.348808  
     230A      3.365589   231A      3.381878   232A      3.393775  
     233A      3.403926   234A      3.436285   235A      3.453088  
     236A      3.466371   237A      3.476282   238A      3.499257  
     239A      3.530703   240A      3.538596   241A      3.555280  
     242A      3.562674   243A      3.579100   244A      3.603801  
     245A      3.635227   246A      3.639685   247A      3.661352  
     248A      3.695660   249A      3.715606   250A      3.741532  
     251A      3.763212   252A      3.772438   253A      3.802707  
     254A      3.844722   255A      3.884013   256A      3.900599  
     257A      3.934314   258A      3.944025   259A      3.983776  
     260A      4.003354   261A      4.018718   262A      4.022530  
     263A      4.071336   264A      4.087890   265A      4.090465  
     266A      4.122283   267A      4.164638   268A      4.176750  
     269A      4.191708   270A      4.208096   271A      4.260632  
     272A      4.303611   273A      4.361619   274A      4.395232  
     275A      4.418103   276A      4.439139   277A      4.495417  
     278A      4.510400   279A      4.551086   280A      4.593455  
     281A      4.606740   282A      4.646813   283A      4.669987  
     284A      4.680715   285A      4.739276   286A      4.791693  
     287A      4.849587   288A      4.872846   289A      4.939768  
     290A      4.963274   291A      4.993038   292A      5.044975  
     293A      5.087650   294A      5.155616   295A     22.459732  
     296A     22.497649   297A     22.515358   298A     22.617319  
     299A     22.651843   300A     22.696459   301A     22.798577  

    Final Occupation by Irrep:
              A 
    DOCC [    28 ]

  @DF-RKS Final Energy:  -274.93682772850599

   => Energetics <=

    Nuclear Repulsion Energy =            330.9877508888308171
    One-Electron Energy =               -1025.0835331685439087
    Two-Electron Energy =                 451.8349301317357458
    DFT Exchange-Correlation Energy =     -32.6759755805285579
    Empirical Dispersion Energy =           0.0000000000000000
    VV10 Nonlocal Energy =                  0.0000000000000000
    Total Energy =                       -274.9368277285059321

Computation Completed


Properties will be evaluated at   0.000000,   0.000000,   0.000000 [a0]

Properties computed using the SCF density matrix

  Nuclear Dipole Moment: [e a0]
     X:     1.2235      Y:    -0.0198      Z:     0.2163

  Electronic Dipole Moment: [e a0]
     X:    -1.2621      Y:     0.0215      Z:    -0.2476

  Dipole Moment: [e a0]
     X:    -0.0385      Y:     0.0017      Z:    -0.0314     Total:     0.0497

  Dipole Moment: [D]
     X:    -0.0980      Y:     0.0043      Z:    -0.0797     Total:     0.1264


*** tstop() called on thinkpad at Sat Jul 10 13:45:53 2021
Module time:
	user time   =     132.47 seconds =       2.21 minutes
	system time =       2.36 seconds =       0.04 minutes
	total time  =         39 seconds =       0.65 minutes
Total time:
	user time   =     132.47 seconds =       2.21 minutes
	system time =       2.36 seconds =       0.04 minutes
	total time  =         39 seconds =       0.65 minutes

*** tstart() called on thinkpad
*** at Sat Jul 10 13:45:53 2021


         ------------------------------------------------------------
                                   SCF GRAD                          
                          Rob Parrish, Justin Turney,                
                       Andy Simmonett, and Alex Sokolov              
         ------------------------------------------------------------

  ==> Geometry <==

    Molecular point group: c1
    Full point group: C1

    Geometry (in Angstrom), charge = 0, multiplicity = 1:

       Center              X                  Y                   Z               Mass       
    ------------   -----------------  -----------------  -----------------  -----------------
         C            0.964063666167     0.029819595938    -0.343625867995    12.000000000000
         C            0.322911715867    -1.311604044662     0.046770589405    12.000000000000
         C            0.275027835767     1.163285650738     0.414383654405    12.000000000000
         C           -1.162310974933    -1.159844531062     0.397104536705    12.000000000000
         C           -1.183405046033     1.311168394238    -0.035972495695    12.000000000000
         C           -1.791364021733    -0.041823050162    -0.425930857595    12.000000000000
         C            2.465462526367     0.010770374938    -0.072104949195    12.000000000000
         H            0.814297382667     0.200051880238    -1.415131603695     1.007825032230
         H            0.852562769067    -1.730179295862     0.905273927505     1.007825032230
         H            0.437559032967    -2.015054940762    -0.780518371895     1.007825032230
         H            0.807651108767     2.101950745238     0.249900660305     1.007825032230
         H            0.319355202667     0.946398402538     1.483517422805     1.007825032230
         H           -1.276983196133    -0.923275694162     1.456632231405     1.007825032230
         H           -1.682651868833    -2.101980046662     0.214646496505     1.007825032230
         H           -1.239897539533     1.989455784338    -0.889630281795     1.007825032230
         H           -1.763481334133     1.758257621238     0.773763396405     1.007825032230
         H           -1.614979069233    -0.242324972162    -1.484517792195     1.007825032230
         H           -2.871883622933    -0.020968072362    -0.272624924895     1.007825032230
         H            2.929880192667     0.932552261338    -0.416181655895     1.007825032230
         H            2.658462138167    -0.092234609362     0.994030570005     1.007825032230
         H            2.935267477467    -0.823752607262    -0.588460625595     1.007825032230

  Nuclear repulsion =  330.987750888830817

  ==> Basis Set <==

  Basis Set: DEF2-TZVP
    Blend: DEF2-TZVP
    Number of shells: 133
    Number of basis function: 301
    Number of Cartesian functions: 336
    Spherical Harmonics?: true
    Max angular momentum: 3

  ==> DFJKGrad: Density-Fitted SCF Gradients <==

    Gradient:                    1
    J tasked:                  Yes
    K tasked:                  Yes
    wK tasked:                  No
    OpenMP threads:              4
    Integrals threads:           4
    Memory [MiB]:             5722
    Schwarz Cutoff:          0E+00
    Fitting Condition:       1E-10

   => Auxiliary Basis Set <=

  Basis Set: (DEF2-TZVP AUX)
    Blend: DEF2-TZVP-JKFIT
    Number of shells: 259
    Number of basis function: 777
    Number of Cartesian functions: 903
    Spherical Harmonics?: true
    Max angular momentum: 4

  ==> DFT Potential <==

   => Composite Functional: PBE0 <= 

    PBE0 Hyb-GGA Exchange-Correlation Functional

    C. Adamo and V. Barone, J. Chem. Phys. 110, 6158 (1999)
    M. Ernzerhof and G. E. Scuseria, J. Chem. Phys. 110, 5029 (1999)

    Deriv               =              1
    GGA                 =           TRUE
    Meta                =          FALSE

    Exchange Hybrid     =           TRUE
    MP2 Hybrid          =          FALSE

   => Exchange Functionals <=

    0.7500   Perdew, Burke & Ernzerhof

   => Exact (HF) Exchange <=

    0.2500               HF 

   => Correlation Functionals <=

    1.0000   Perdew, Burke & Ernzerhof

   => Molecular Quadrature <=

    Radial Scheme          =       TREUTLER
    Pruning Scheme         =           FLAT
    Nuclear Scheme         =       TREUTLER

    BS radius alpha        =              1
    Pruning alpha          =              1
    Radial Points          =             75
    Spherical Points       =            302
    Total Points           =         472038
    Total Blocks           =           3480
    Max Points             =            256
    Max Functions          =            291


  -Total Gradient:
     Atom            X                  Y                   Z
    ------   -----------------  -----------------  -----------------
       1       -0.005788511007    -0.000412546197    -0.009070364537
       2        0.004195260771    -0.004853649874     0.000950807684
       3        0.001956932272     0.001428492248     0.008469064445
       4       -0.000149567961     0.000035351941     0.006577739432
       5       -0.001832428487     0.003096904055    -0.000323515665
       6       -0.000538431210     0.000108185433    -0.006184576622
       7        0.007764553546    -0.000634814861     0.004923434171
       8        0.000525576176    -0.000069908562     0.000988484373
       9       -0.002094126376     0.001380891572    -0.000531133060
      10       -0.000946903958     0.002032348478     0.000350309244
      11       -0.001312105286    -0.001256852428    -0.001782373644
      12       -0.001218857470    -0.000316720884    -0.002532843643
      13        0.000824884687     0.000853716380    -0.002193740996
      14        0.000968596559     0.001100363183    -0.002038599348
      15        0.000563232695    -0.002066901207     0.000081221902
      16        0.001555549609    -0.001562890839     0.000037371751
      17        0.001097569738     0.000353671913     0.002147607972
      18        0.001334211447     0.000138822413     0.001959701093
      19       -0.002785920758    -0.002420964021     0.000657063467
      20       -0.001057689180     0.000587567047    -0.003364896544
      21       -0.003056494363     0.002487226941     0.000873645640


*** tstop() called on thinkpad at Sat Jul 10 13:46:06 2021
Module time:
	user time   =      46.61 seconds =       0.78 minutes
	system time =       0.55 seconds =       0.01 minutes
	total time  =         13 seconds =       0.22 minutes
Total time:
	user time   =     179.08 seconds =       2.98 minutes
	system time =       2.91 seconds =       0.05 minutes
	total time  =         52 seconds =       0.87 minutes

			-----------------------------------------
			 OPTKING 2.0: for geometry optimizations 
			  - R.A. King,  Bethel University        
			-----------------------------------------

	Internal coordinates to be generated automatically.
	Detected frag 1 with atoms:  1 2 3 4 5 6 7 8 9 10 11 12 13 14 15 16 17 18 19 20
	 21
	---Fragment 1 Bond Connectivity---
	 1 : 2 3 7 8
	 2 : 1 4 9 10
	 3 : 1 5 11 12
	 4 : 2 6 13 14
	 5 : 3 6 15 16
	 6 : 4 5 17 18
	 7 : 1 19 20 21
	 8 : 1
	 9 : 2
	 10 : 2
	 11 : 3
	 12 : 3
	 13 : 4
	 14 : 4
	 15 : 5
	 16 : 5
	 17 : 6
	 18 : 6
	 19 : 7
	 20 : 7
	 21 : 7

	---Fragment 1 Geometry and Gradient---
	 C           1.8218162966        0.0563508695       -0.6493587801
	 C           0.6102147057       -2.4785724295        0.0883836047
	 C           0.5197272865        2.1982912856        0.7830716177
	 C          -2.1964494152       -2.1917885118        0.7504188175
	 C          -2.2363114325        2.4777491695       -0.0679781649
	 C          -3.3851873921       -0.0790341105       -0.8048926692
	 C           4.6590489474        0.0203530589       -0.1362586063
	 H           1.5387990379        0.3780432645       -2.6742111625
	 H           1.6111101383       -3.2695650171        1.7107197915
	 H           0.8268667360       -3.8079019658       -1.4749659588
	 H           1.5262394005        3.9721112377        0.4722438065
	 H           0.6034938698        1.7884337864        2.8034416314
	 H          -2.4131485075       -1.7447382003        2.7526359829
	 H          -3.1797511966       -3.9721666094        0.4056230922
	 H          -2.3430667733        3.7595265711       -1.6811575855
	 H          -3.3324967489        3.3226253621        1.4622009051
	 H          -3.0518681392       -0.4579278307       -2.8053320556
	 H          -5.4270735115       -0.0396239141       -0.5151864430
	 H           5.5366711445        1.7622683716       -0.7864693481
	 H           5.0237653560       -0.1742981510        1.8784455376
	 H           5.5468516374       -1.5566668229       -1.1120294180
	            -0.0057885110       -0.0004125462       -0.0090703645
	             0.0041952608       -0.0048536499        0.0009508077
	             0.0019569323        0.0014284922        0.0084690644
	            -0.0001495680        0.0000353519        0.0065777394
	            -0.0018324285        0.0030969041       -0.0003235157
	            -0.0005384312        0.0001081854       -0.0061845766
	             0.0077645535       -0.0006348149        0.0049234342
	             0.0005255762       -0.0000699086        0.0009884844
	            -0.0020941264        0.0013808916       -0.0005311331
	            -0.0009469040        0.0020323485        0.0003503092
	            -0.0013121053       -0.0012568524       -0.0017823736
	            -0.0012188575       -0.0003167209       -0.0025328436
	             0.0008248847        0.0008537164       -0.0021937410
	             0.0009685966        0.0011003632       -0.0020385993
	             0.0005632327       -0.0020669012        0.0000812219
	             0.0015555496       -0.0015628908        0.0000373718
	             0.0010975697        0.0003536719        0.0021476080
	             0.0013342114        0.0001388224        0.0019597011
	            -0.0027859208       -0.0024209640        0.0006570635
	            -0.0010576892        0.0005875670       -0.0033648965
	            -0.0030564944        0.0024872269        0.0008736456

	Previous optimization step data not found.  Starting new optimization.

	---Fragment 1 Intrafragment Coordinates---
	 - Coordinate -           - BOHR/RAD -       - ANG/DEG -
	 R(1,2)           =         2.904837	       1.537174
	 R(1,3)           =         2.887075	       1.527774
	 R(1,7)           =         2.883480	       1.525872
	 R(1,8)           =         2.069689	       1.095232
	 R(2,4)           =         2.897913	       1.533509
	 R(2,9)           =         2.063840	       1.092137
	 R(2,10)          =         2.063521	       1.091968
	 R(3,5)           =         2.897953	       1.533531
	 R(3,11)          =         2.063036	       1.091712
	 R(3,12)          =         2.063224	       1.091811
	 R(4,6)           =         2.880247	       1.524161
	 R(4,13)          =         2.062931	       1.091656
	 R(4,14)          =         2.062889	       1.091634
	 R(5,6)           =         2.898293	       1.533710
	 R(5,15)          =         2.063177	       1.091786
	 R(5,16)          =         2.063222	       1.091810
	 R(6,17)          =         2.063109	       1.091750
	 R(6,18)          =         2.062712	       1.091540
	 R(7,19)          =         2.056031	       1.088005
	 R(7,20)          =         2.056682	       1.088349
	 R(7,21)          =         2.056043	       1.088011
	 B(1,2,4)         =         1.955867	     112.062924
	 B(1,2,9)         =         1.909026	     109.379126
	 B(1,2,10)        =         1.902830	     109.024118
	 B(1,3,5)         =         1.933451	     110.778609
	 B(1,3,11)        =         1.921022	     110.066446
	 B(1,3,12)        =         1.896692	     108.672457
	 B(1,7,19)        =         1.931738	     110.680431
	 B(1,7,20)        =         1.928349	     110.486254
	 B(1,7,21)        =         1.928369	     110.487398
	 B(2,1,3)         =         1.910606	     109.469647
	 B(2,1,7)         =         1.932984	     110.751847
	 B(2,1,8)         =         1.903998	     109.091036
	 B(2,4,6)         =         1.927252	     110.423388
	 B(2,4,13)        =         1.922941	     110.176376
	 B(2,4,14)        =         1.915651	     109.758718
	 B(3,1,7)         =         1.944157	     111.392015
	 B(3,1,8)         =         1.884325	     107.963878
	 B(3,5,6)         =         1.946131	     111.505118
	 B(3,5,15)        =         1.916373	     109.800105
	 B(3,5,16)        =         1.903889	     109.084814
	 B(4,2,9)         =         1.905029	     109.150124
	 B(4,2,10)        =         1.916136	     109.786482
	 B(4,6,5)         =         1.924314	     110.255089
	 B(4,6,17)        =         1.898844	     108.795720
	 B(4,6,18)        =         1.924876	     110.287267
	 B(5,3,11)        =         1.914341	     109.683683
	 B(5,3,12)        =         1.923398	     110.202607
	 B(5,6,17)        =         1.922507	     110.151519
	 B(5,6,18)        =         1.917533	     109.866531
	 B(6,4,13)        =         1.898410	     108.770895
	 B(6,4,14)        =         1.924198	     110.248447
	 B(6,5,15)        =         1.905773	     109.192722
	 B(6,5,16)        =         1.916870	     109.828549
	 B(7,1,8)         =         1.886600	     108.094246
	 B(9,2,10)        =         1.873105	     107.320992
	 B(11,3,12)       =         1.873947	     107.369244
	 B(13,4,14)       =         1.874630	     107.408411
	 B(15,5,16)       =         1.873384	     107.336990
	 B(17,6,18)       =         1.875093	     107.434906
	 B(19,7,20)       =         1.890494	     108.317355
	 B(19,7,21)       =         1.891708	     108.386908
	 B(20,7,21)       =         1.892027	     108.405176
	 D(1,2,4,6)       =         0.559261	      32.043280
	 D(1,2,4,13)      =        -1.538192	     -88.131892
	 D(1,2,4,14)      =         2.684142	     153.789984
	 D(1,3,5,6)       =         0.570929	      32.711814
	 D(1,3,5,15)      =        -1.543679	     -88.446303
	 D(1,3,5,16)      =         2.691054	     154.186035
	 D(2,1,3,5)       =        -1.154843	     -66.167628
	 D(2,1,3,11)      =         3.008183	     172.356184
	 D(2,1,3,12)      =         0.960600	      55.038347
	 D(2,1,7,19)      =         3.068918	     175.836049
	 D(2,1,7,20)      =        -1.120293	     -64.188087
	 D(2,1,7,21)      =         0.973413	      55.772441
	 D(2,4,6,5)       =        -1.149751	     -65.875884
	 D(2,4,6,17)      =         0.960294	      55.020790
	 D(2,4,6,18)      =         3.012742	     172.617392
	 D(3,1,2,4)       =         0.541500	      31.025673
	 D(3,1,2,9)       =        -1.573559	     -90.158293
	 D(3,1,2,10)      =         2.666322	     152.768979
	 D(3,1,7,19)      =        -1.083415	     -62.075113
	 D(3,1,7,20)      =         1.010559	      57.900752
	 D(3,1,7,21)      =         3.104265	     177.861280
	 D(3,5,6,4)       =         0.539805	      30.928531
	 D(3,5,6,17)      =        -1.556029	     -89.153901
	 D(3,5,6,18)      =         2.664854	     152.684905
	 D(4,2,1,7)       =         2.691861	     154.232264
	 D(4,2,1,8)       =        -1.516909	     -86.912458
	 D(4,6,5,15)      =         2.660577	     152.439851
	 D(4,6,5,16)      =        -1.572766	     -90.112841
	 D(5,3,1,7)       =         2.984607	     171.005364
	 D(5,3,1,8)       =         0.915816	      52.472383
	 D(5,6,4,13)      =         0.962371	      55.139814
	 D(5,6,4,14)      =         3.013611	     172.667185
	 D(6,4,2,9)       =         2.676622	     153.359143
	 D(6,4,2,10)      =        -1.557919	     -89.262206
	 D(6,5,3,11)      =         2.695016	     154.413020
	 D(6,5,3,12)      =        -1.528674	     -87.586583
	 D(7,1,2,9)       =         0.576802	      33.048298
	 D(7,1,2,10)      =        -1.466503	     -84.024431
	 D(7,1,3,11)      =         0.864447	      49.529176
	 D(7,1,3,12)      =        -1.183135	     -67.788661
	 D(8,1,2,9)       =         2.651218	     151.903576
	 D(8,1,2,10)      =         0.607913	      34.830847
	 D(8,1,3,11)      =        -1.204344	     -69.003806
	 D(8,1,3,12)      =         3.031259	     173.678358
	 D(8,1,7,19)      =         0.984011	      56.379698
	 D(8,1,7,20)      =         3.077985	     176.355563
	 D(8,1,7,21)      =        -1.111494	     -63.683909
	 D(9,2,4,13)      =         0.579170	      33.183971
	 D(9,2,4,14)      =        -1.481682	     -84.894153
	 D(10,2,4,13)     =         2.627813	     150.562622
	 D(10,2,4,14)     =         0.566961	      32.484498
	 D(11,3,5,15)     =         0.580408	      33.254903
	 D(11,3,5,16)     =        -1.468045	     -84.112759
	 D(12,3,5,15)     =         2.639903	     151.255300
	 D(12,3,5,16)     =         0.591451	      33.887638
	 D(13,4,6,17)     =         3.072416	     176.036488
	 D(13,4,6,18)     =        -1.158321	     -66.366910
	 D(14,4,6,17)     =        -1.159529	     -66.436141
	 D(14,4,6,18)     =         0.892919	      51.160462
	 D(15,5,6,17)     =         0.564744	      32.357419
	 D(15,5,6,18)     =        -1.497558	     -85.803775
	 D(16,5,6,17)     =         2.614586	     149.804727
	 D(16,5,6,18)     =         0.552284	      31.643533

	Current energy   :      -274.9368277285

	Generating empirical Hessian (Schlegel '84) for each fragment.
	Taking RFO optimization step.
	Going to follow RFO solution 1.
	Using RFO vector 1.
	Norm of target step-size    0.18873
	Projected energy change by RFO approximation:         0.0004594835

	Back-transformation to cartesian coordinates...
	Successfully converged to displaced geometry.

	--- Internal Coordinate Step in ANG or DEG, aJ/ANG or AJ/DEG ---
	 ---------------------------------------------------------------------------
	   Coordinate                Previous        Force       Change         New 
	   ----------                --------       ------       ------       ------
	    1 R(1,2)          =      1.537174     0.006541     0.001476     1.538649
	    2 R(1,3)          =      1.527774    -0.008950    -0.002681     1.525093
	    3 R(1,7)          =      1.525872    -0.011539    -0.002476     1.523396
	    4 R(1,8)          =      1.095232     0.008657     0.001619     1.096851
	    5 R(2,4)          =      1.533509     0.010528     0.002683     1.536192
	    6 R(2,9)          =      1.092137     0.016171     0.002994     1.095131
	    7 R(2,10)         =      1.091968     0.013789     0.002552     1.094520
	    8 R(3,5)          =      1.533531     0.012815     0.002948     1.536479
	    9 R(3,11)         =      1.091712     0.011971     0.002213     1.093925
	   10 R(3,12)         =      1.091811     0.020314     0.003757     1.095569
	   11 R(4,6)          =      1.524161    -0.001761    -0.000604     1.523557
	   12 R(4,13)         =      1.091656     0.016739     0.003094     1.094751
	   13 R(4,14)         =      1.091634     0.008815     0.001629     1.093264
	   14 R(5,6)          =      1.533710     0.011368     0.002970     1.536680
	   15 R(5,15)         =      1.091786     0.011342     0.002098     1.093884
	   16 R(5,16)         =      1.091810     0.011854     0.002192     1.094003
	   17 R(6,17)         =      1.091750     0.016224     0.003000     1.094751
	   18 R(6,18)         =      1.091540     0.008593     0.001588     1.093128
	   19 R(7,19)         =      1.088005     0.028424     0.005191     1.093196
	   20 R(7,20)         =      1.088349     0.029145     0.005329     1.093678
	   21 R(7,21)         =      1.088011     0.030004     0.005480     1.093491
	   22 B(1,2,4)        =    112.062924     0.000116     1.054233   113.117158
	   23 B(1,2,9)        =    109.379126    -0.000081    -0.428313   108.950813
	   24 B(1,2,10)       =    109.024118    -0.000000    -0.011650   109.012468
	   25 B(1,3,5)        =    110.778609     0.000078     0.707520   111.486128
	   26 B(1,3,11)       =    110.066446    -0.000006     0.325883   110.392329
	   27 B(1,3,12)       =    108.672457    -0.000042    -0.486031   108.186426
	   28 B(1,7,19)       =    110.680431     0.000132     0.691641   111.372072
	   29 B(1,7,20)       =    110.486254    -0.000015    -0.166089   110.320165
	   30 B(1,7,21)       =    110.487398     0.000156     0.742906   111.230303
	   31 B(2,1,3)        =    109.469647    -0.000056     0.357076   109.826724
	   32 B(2,1,7)        =    110.751847     0.000073     0.760935   111.512782
	   33 B(2,1,8)        =    109.091036    -0.000039    -0.902407   108.188630
	   34 B(2,4,6)        =    110.423388    -0.000012     0.442170   110.865558
	   35 B(2,4,13)       =    110.176376    -0.000032    -0.322581   109.853795
	   36 B(2,4,14)       =    109.758718     0.000062     0.501926   110.260644
	   37 B(3,1,7)        =    111.392015     0.000094     1.027586   112.419602
	   38 B(3,1,8)        =    107.963878    -0.000027    -0.799403   107.164475
	   39 B(3,5,6)        =    111.505118     0.000022     0.773220   112.278338
	   40 B(3,5,15)       =    109.800105    -0.000034    -0.181203   109.618902
	   41 B(3,5,16)       =    109.084814     0.000054     0.305295   109.390109
	   42 B(4,2,9)        =    109.150124     0.000038     0.340330   109.490454
	   43 B(4,2,10)       =    109.786482    -0.000039    -0.028142   109.758340
	   44 B(4,6,5)        =    110.255089    -0.000011     0.515516   110.770605
	   45 B(4,6,17)       =    108.795720     0.000020    -0.117693   108.678027
	   46 B(4,6,18)       =    110.287267     0.000034     0.518333   110.805599
	   47 B(5,3,11)       =    109.683683     0.000036     0.516455   110.200137
	   48 B(5,3,12)       =    110.202607    -0.000014    -0.041295   110.161313
	   49 B(5,6,17)       =    110.151519    -0.000023    -0.221152   109.930367
	   50 B(5,6,18)       =    109.866531     0.000052     0.367021   110.233552
	   51 B(6,4,13)       =    108.770895     0.000020    -0.147476   108.623419
	   52 B(6,4,14)       =    110.248447     0.000038     0.618575   110.867022
	   53 B(6,5,15)       =    109.192722     0.000047     0.200828   109.393550
	   54 B(6,5,16)       =    109.828549    -0.000031    -0.123564   109.704985
	   55 B(7,1,8)        =    108.094246    -0.000050    -0.576311   107.517935
	   56 B(9,2,10)       =    107.320992    -0.000041    -1.042076   106.278916
	   57 B(11,3,12)      =    107.369244    -0.000057    -1.107570   106.261674
	   58 B(13,4,14)      =    107.408411    -0.000078    -1.159130   106.249281
	   59 B(15,5,16)      =    107.336990    -0.000061    -1.061835   106.275155
	   60 B(17,6,18)      =    107.434906    -0.000075    -1.123685   106.311221
	   61 B(19,7,20)      =    108.317355    -0.000067    -0.361499   107.955856
	   62 B(19,7,21)      =    108.386908    -0.000122    -0.385374   108.001534
	   63 B(20,7,21)      =    108.405176    -0.000094    -0.584039   107.821138
	   64 D(1,2,4,6)      =     32.043280    -0.000002    -1.571045    30.472235
	   65 D(1,2,4,13)     =    -88.131892    -0.000001    -1.461549   -89.593441
	   66 D(1,2,4,14)     =    153.789984     0.000016    -0.153267   153.636717
	   67 D(1,3,5,6)      =     32.711814    -0.000002    -1.478046    31.233768
	   68 D(1,3,5,15)     =    -88.446303    -0.000014    -2.122430   -90.568733
	   69 D(1,3,5,16)     =    154.186035     0.000000    -0.914274   153.271761
	   70 D(2,1,3,5)      =    -66.167628     0.000027     2.264176   -63.903452
	   71 D(2,1,3,11)     =    172.356184     0.000005     0.904762   173.260946
	   72 D(2,1,3,12)     =     55.038347     0.000028     2.336625    57.374972
	   73 D(2,1,7,19)     =    175.836049    -0.000003    -0.920506   174.915542
	   74 D(2,1,7,20)     =    -64.188087    -0.000005    -1.032964   -65.221050
	   75 D(2,1,7,21)     =     55.772441    -0.000011    -1.391100    54.381341
	   76 D(2,4,6,5)      =    -65.875884     0.000023     2.326106   -63.549778
	   77 D(2,4,6,17)     =     55.020790     0.000018     2.297088    57.317878
	   78 D(2,4,6,18)     =    172.617392     0.000005     1.162362   173.779754
	   79 D(3,1,2,4)      =     31.025673    -0.000012    -0.206008    30.819665
	   80 D(3,1,2,9)      =    -90.158293    -0.000028    -1.037644   -91.195937
	   81 D(3,1,2,10)     =    152.768979    -0.000006     0.453658   153.222637
	   82 D(3,1,7,19)     =    -62.075113     0.000007     0.839648   -61.235465
	   83 D(3,1,7,20)     =     57.900752     0.000005     0.727190    58.627942
	   84 D(3,1,7,21)     =    177.861280    -0.000001     0.369054   178.230334
	   85 D(3,5,6,4)      =     30.928531     0.000001    -0.143697    30.784833
	   86 D(3,5,6,17)     =    -89.153901     0.000000    -0.184054   -89.337955
	   87 D(3,5,6,18)     =    152.684905     0.000017     1.102158   153.787062
	   88 D(4,2,1,7)      =    154.232264     0.000017     1.889944   156.122207
	   89 D(4,2,1,8)      =    -86.912458     0.000008     1.073467   -85.838991
	   90 D(4,6,5,15)     =    152.439851     0.000002     0.275900   152.715751
	   91 D(4,6,5,16)     =    -90.112841    -0.000013    -0.961046   -91.073887
	   92 D(5,3,1,7)      =    171.005364    -0.000000     0.310194   171.315558
	   93 D(5,3,1,8)      =     52.472383     0.000005     0.923978    53.396361
	   94 D(5,6,4,13)     =     55.139814     0.000015     2.107072    57.246886
	   95 D(5,6,4,14)     =    172.667185     0.000002     0.968998   173.636184
	   96 D(6,4,2,9)      =    153.359143    -0.000002    -1.173989   152.185154
	   97 D(6,4,2,10)     =    -89.262206    -0.000013    -2.251676   -91.513882
	   98 D(6,5,3,11)     =    154.413020     0.000013    -0.233738   154.179282
	   99 D(6,5,3,12)     =    -87.586583     0.000000    -1.301437   -88.888020
	  100 D(7,1,2,9)      =     33.048298     0.000002     1.058308    34.106606
	  101 D(7,1,2,10)     =    -84.024431     0.000024     2.549610   -81.474821
	  102 D(7,1,3,11)     =     49.529176    -0.000021    -1.049220    48.479956
	  103 D(7,1,3,12)     =    -67.788661     0.000001     0.382643   -67.406018
	  104 D(8,1,2,9)      =    151.903576    -0.000008     0.241831   152.145407
	  105 D(8,1,2,10)     =     34.830847     0.000014     1.733133    36.563981
	  106 D(8,1,3,11)     =    -69.003806    -0.000016    -0.435435   -69.439241
	  107 D(8,1,3,12)     =    173.678358     0.000006     0.996427   174.674785
	  108 D(8,1,7,19)     =     56.379698     0.000005     0.094828    56.474527
	  109 D(8,1,7,20)     =    176.355563     0.000003    -0.017629   176.337934
	  110 D(8,1,7,21)     =    -63.683909    -0.000003    -0.375766   -64.059675
	  111 D(9,2,4,13)     =     33.183971    -0.000001    -1.064493    32.119478
	  112 D(9,2,4,14)     =    -84.894153     0.000016     0.243789   -84.650364
	  113 D(10,2,4,13)    =    150.562622    -0.000013    -2.142180   148.420442
	  114 D(10,2,4,14)    =     32.484498     0.000005    -0.833898    31.650600
	  115 D(11,3,5,15)    =     33.254903     0.000002    -0.878122    32.376781
	  116 D(11,3,5,16)    =    -84.112759     0.000016     0.330034   -83.782725
	  117 D(12,3,5,15)    =    151.255300    -0.000011    -1.945820   149.309479
	  118 D(12,3,5,16)    =     33.887638     0.000003    -0.737664    33.149973
	  119 D(13,4,6,17)    =    176.036488     0.000010     2.078054   178.114542
	  120 D(13,4,6,18)    =    -66.366910    -0.000003     0.943328   -65.423582
	  121 D(14,4,6,17)    =    -66.436141    -0.000004     0.939981   -65.496160
	  122 D(14,4,6,18)    =     51.160462    -0.000017    -0.194745    50.965716
	  123 D(15,5,6,17)    =     32.357419     0.000001     0.235544    32.592963
	  124 D(15,5,6,18)    =    -85.803775     0.000018     1.521755   -84.282020
	  125 D(16,5,6,17)    =    149.804727    -0.000014    -1.001402   148.803325
	  126 D(16,5,6,18)    =     31.643533     0.000003     0.284809    31.928342
	 ---------------------------------------------------------------------------
	Successfully symmetrized geometry.

  ==> Convergence Check <==

  Measures of convergence in internal coordinates in au.
  Criteria marked as inactive (o), active & met (*), and active & unmet ( ).
  --------------------------------------------------------------------------------------------- ~
   Step     Total Energy     Delta E     MAX Force     RMS Force      MAX Disp      RMS Disp    ~
  --------------------------------------------------------------------------------------------- ~
    Convergence Criteria    1.00e-06 *    3.00e-04 *             o    1.20e-03 *             o  ~
  --------------------------------------------------------------------------------------------- ~
      1    -274.93682773   -2.75e+02      3.64e-03      1.04e-03 o    4.45e-02      1.68e-02 o  ~
  ---------------------------------------------------------------------------------------------

	Writing optimization data to binary file.
	Structure for next step:
	Cartesian Geometry (in Angstrom)
	    C     0.9749860366   0.0329874871  -0.3291578857
	    C     0.3200604790  -1.3069386205   0.0491430876
	    C     0.2809835382   1.1740798194   0.4071689190
	    C    -1.1748621690  -1.1760639351   0.3777236618
	    C    -1.1877897996   1.3104065100  -0.0228157257
	    C    -1.8074521643  -0.0397401928  -0.4158914722
	    C     2.4778005794   0.0101028202  -0.0806441013
	    H     0.8202955831   0.1987678785  -1.4023171163
	    H     0.8477878209  -1.7301237339   0.9103808355
	    H     0.4574213670  -2.0157688007  -0.7734534214
	    H     0.8126489967   2.1152493956   0.2392300430
	    H     0.3426270662   0.9745847376   1.4826559143
	    H    -1.3043413823  -0.9712682547   1.4453250675
	    H    -1.6894406697  -2.1207623556   0.1828417137
	    H    -1.2607596239   2.0029158349  -0.8664316354
	    H    -1.7647256198   1.7578330534   0.7919211102
	    H    -1.6489221054  -0.2265987888  -1.4828642659
	    H    -2.8899763633  -0.0169110903  -0.2657272816
	    H     2.9538649640   0.9290418226  -0.4327685871
	    H     2.6844484746  -0.0882484940   0.9888210920
	    H     2.9508893620  -0.8328762466  -0.5918158940
			--------------------------
			 OPTKING Finished Execution 
			--------------------------

    Structure for next step:
    Molecular point group: c1
    Full point group: C1

    Geometry (in Angstrom), charge = 0, multiplicity = 1:

    C            0.975732136123     0.032644477587    -0.329707091914
    C            0.320806575885    -1.307281635281     0.048593882835
    C            0.281729634993     1.173736814294     0.406619715607
    C           -1.174116077937    -1.176406949443     0.377174458379
    C           -1.187043708581     1.310063505494    -0.023364930733
    C           -1.806706075768    -0.040083202621    -0.416440678739
    C            2.478546684743     0.009759810539    -0.081193306595
    H            0.821041682012     0.198424869598    -1.402866326770
    H            0.848533919868    -1.730466750381     0.909831634161
    H            0.458167464466    -2.016111818270    -0.774002629418
    H            0.813395095536     2.114906394268     0.238680839029
    H            0.343373163227     0.974241731700     1.482106715216
    H           -1.303595291803    -0.971611268214     1.444775868197
    H           -1.688694580671    -2.121105373580     0.182292509468
    H           -1.260013533241     2.002572833068    -0.866980843744
    H           -1.763979531096     1.757490050591     0.791371908401
    H           -1.648176016267    -0.226941799411    -1.483413476636
    H           -2.889230279062    -0.017254100021    -0.266276487605
    H            2.954611071240     0.928698816594    -0.433317793708
    H            2.685194580756    -0.088591504075     0.988271890918
    H            2.951635469267    -0.833219259581    -0.592365101255

gradient() will perform analytic gradient computation.

*** tstart() called on thinkpad
*** at Sat Jul 10 13:46:06 2021

   => Loading Basis Set <=

    Name: DEF2-TZVP
    Role: ORBITAL
    Keyword: BASIS
    atoms 1-7  entry C          line   123 file /usr/share/psi4/basis/def2-tzvp.gbs 
    atoms 8-21 entry H          line    15 file /usr/share/psi4/basis/def2-tzvp.gbs 


         ---------------------------------------------------------
                                   SCF
               by Justin Turney, Rob Parrish, Andy Simmonett
                          and Daniel G. A. Smith
                              RKS Reference
                        4 Threads,   7629 MiB Core
         ---------------------------------------------------------

  ==> Geometry <==

    Molecular point group: c1
    Full point group: C1

    Geometry (in Angstrom), charge = 0, multiplicity = 1:

       Center              X                  Y                   Z               Mass       
    ------------   -----------------  -----------------  -----------------  -----------------
         C            0.975732136123     0.032644477587    -0.329707091914    12.000000000000
         C            0.320806575885    -1.307281635281     0.048593882835    12.000000000000
         C            0.281729634993     1.173736814294     0.406619715607    12.000000000000
         C           -1.174116077937    -1.176406949443     0.377174458379    12.000000000000
         C           -1.187043708581     1.310063505494    -0.023364930733    12.000000000000
         C           -1.806706075768    -0.040083202621    -0.416440678739    12.000000000000
         C            2.478546684743     0.009759810539    -0.081193306595    12.000000000000
         H            0.821041682012     0.198424869598    -1.402866326770     1.007825032230
         H            0.848533919868    -1.730466750381     0.909831634161     1.007825032230
         H            0.458167464466    -2.016111818270    -0.774002629418     1.007825032230
         H            0.813395095536     2.114906394268     0.238680839029     1.007825032230
         H            0.343373163227     0.974241731700     1.482106715216     1.007825032230
         H           -1.303595291803    -0.971611268214     1.444775868197     1.007825032230
         H           -1.688694580671    -2.121105373580     0.182292509468     1.007825032230
         H           -1.260013533241     2.002572833068    -0.866980843744     1.007825032230
         H           -1.763979531096     1.757490050591     0.791371908401     1.007825032230
         H           -1.648176016267    -0.226941799411    -1.483413476636     1.007825032230
         H           -2.889230279062    -0.017254100021    -0.266276487605     1.007825032230
         H            2.954611071240     0.928698816594    -0.433317793708     1.007825032230
         H            2.685194580756    -0.088591504075     0.988271890918     1.007825032230
         H            2.951635469267    -0.833219259581    -0.592365101255     1.007825032230

  Running in c1 symmetry.

  Rotational constants: A =      0.13892  B =      0.07396  C =      0.05458 [cm^-1]
  Rotational constants: A =   4164.73088  B =   2217.24017  C =   1636.35330 [MHz]
  Nuclear repulsion =  329.874020020274145

  Charge       = 0
  Multiplicity = 1
  Electrons    = 56
  Nalpha       = 28
  Nbeta        = 28

  ==> Algorithm <==

  SCF Algorithm Type is DF.
  DIIS enabled.
  MOM disabled.
  Fractional occupation disabled.
  Guess Type is READ.
  Energy threshold   = 1.00e-08
  Density threshold  = 1.00e-08
  Integral threshold = 0.00e+00

  ==> Primary Basis <==

  Basis Set: DEF2-TZVP
    Blend: DEF2-TZVP
    Number of shells: 133
    Number of basis function: 301
    Number of Cartesian functions: 336
    Spherical Harmonics?: true
    Max angular momentum: 3

  ==> DFT Potential <==

   => Composite Functional: PBE0 <= 

    PBE0 Hyb-GGA Exchange-Correlation Functional

    C. Adamo and V. Barone, J. Chem. Phys. 110, 6158 (1999)
    M. Ernzerhof and G. E. Scuseria, J. Chem. Phys. 110, 5029 (1999)

    Deriv               =              1
    GGA                 =           TRUE
    Meta                =          FALSE

    Exchange Hybrid     =           TRUE
    MP2 Hybrid          =          FALSE

   => Exchange Functionals <=

    0.7500   Perdew, Burke & Ernzerhof

   => Exact (HF) Exchange <=

    0.2500               HF 

   => Correlation Functionals <=

    1.0000   Perdew, Burke & Ernzerhof

   => Molecular Quadrature <=

    Radial Scheme          =       TREUTLER
    Pruning Scheme         =           FLAT
    Nuclear Scheme         =       TREUTLER

    BS radius alpha        =              1
    Pruning alpha          =              1
    Radial Points          =             75
    Spherical Points       =            302
    Total Points           =         472051
    Total Blocks           =           3478
    Max Points             =            256
    Max Functions          =            291

   => Loading Basis Set <=

    Name: (DEF2-TZVP AUX)
    Role: JKFIT
    Keyword: DF_BASIS_SCF
    atoms 1-7  entry C          line   203 file /usr/share/psi4/basis/def2-tzvp-jkfit.gbs 
    atoms 8-21 entry H          line    23 file /usr/share/psi4/basis/def2-tzvp-jkfit.gbs 

   => Loading Basis Set <=

    Name: DEF2-TZVP
    Role: ORBITAL
    Keyword: BASIS
    atoms 1-7  entry C          line   123 file /usr/share/psi4/basis/def2-tzvp.gbs 
    atoms 8-21 entry H          line    15 file /usr/share/psi4/basis/def2-tzvp.gbs 

  Reading orbitals from file 180, no projection.

  ==> Pre-Iterations <==

   -------------------------------------------------------
    Irrep   Nso     Nmo     Nalpha   Nbeta   Ndocc  Nsocc
   -------------------------------------------------------
     A        301     301       0       0       0       0
   -------------------------------------------------------
    Total     301     301      28      28      28       0
   -------------------------------------------------------

  ==> Integral Setup <==

  DFHelper Memory: AOs need 0.534 GiB; user supplied 2.621 GiB. Using in-core AOs.

  ==> MemDFJK: Density-Fitted J/K Matrices <==

    J tasked:                   Yes
    K tasked:                   Yes
    wK tasked:                   No
    OpenMP threads:               4
    Memory [MiB]:              2683
    Algorithm:                 Core
    Schwarz Cutoff:           1E-12
    Mask sparsity (%):       3.0552
    Fitting Condition:        1E-10

   => Auxiliary Basis Set <=

  Basis Set: (DEF2-TZVP AUX)
    Blend: DEF2-TZVP-JKFIT
    Number of shells: 259
    Number of basis function: 777
    Number of Cartesian functions: 903
    Spherical Harmonics?: true
    Max angular momentum: 4

  Cached 100.0% of DFT collocation blocks in 2.967 [GiB].

  Minimum eigenvalue in the overlap matrix is 4.3853548791E-05.
  Using Symmetric Orthogonalization.

  SCF Guess: Orbitals guess was supplied from a previous computation.

  ==> Iterations <==

                           Total Energy        Delta E     RMS |[F,P]|

   @DF-RKS iter   0:  -274.92759781586363   -2.74928e+02   1.79353e-04 
   @DF-RKS iter   1:  -274.93738960383860   -9.79179e-03   1.49741e-05 DIIS
   @DF-RKS iter   2:  -274.93740232197439   -1.27181e-05   8.00827e-06 DIIS
   @DF-RKS iter   3:  -274.93740479334281   -2.47137e-06   3.28952e-06 DIIS
   @DF-RKS iter   4:  -274.93740523051531   -4.37173e-07   7.92652e-07 DIIS
   @DF-RKS iter   5:  -274.93740525883584   -2.83205e-08   1.55394e-07 DIIS
   @DF-RKS iter   6:  -274.93740525982190   -9.86063e-10   6.01481e-08 DIIS
   @DF-RKS iter   7:  -274.93740525997976   -1.57854e-10   1.03820e-08 DIIS
   @DF-RKS iter   8:  -274.93740525998317   -3.41061e-12   3.37302e-09 DIIS
  Energy and wave function converged.


  ==> Post-Iterations <==

    Orbital Energies [Eh]
    ---------------------

    Doubly Occupied:                                                      

       1A    -10.216899     2A    -10.209638     3A    -10.209245  
       4A    -10.208978     5A    -10.208195     6A    -10.207582  
       7A    -10.203027     8A     -0.858020     9A     -0.782687  
      10A     -0.756277    11A     -0.691285    12A     -0.627424  
      13A     -0.607861    14A     -0.536510    15A     -0.500329  
      16A     -0.478919    17A     -0.452853    18A     -0.425526  
      19A     -0.417667    20A     -0.390815    21A     -0.381019  
      22A     -0.371714    23A     -0.362745    24A     -0.352477  
      25A     -0.348475    26A     -0.307692    27A     -0.302382  
      28A     -0.300175  

    Virtual:                                                              

      29A      0.039767    30A      0.061408    31A      0.065773  
      32A      0.078531    33A      0.099003    34A      0.102812  
      35A      0.112775    36A      0.116036    37A      0.123117  
      38A      0.134078    39A      0.140682    40A      0.146210  
      41A      0.148346    42A      0.165950    43A      0.182160  
      44A      0.184596    45A      0.206082    46A      0.208808  
      47A      0.225065    48A      0.229819    49A      0.239696  
      50A      0.242932    51A      0.256898    52A      0.267222  
      53A      0.272342    54A      0.290982    55A      0.300822  
      56A      0.317056    57A      0.325531    58A      0.337910  
      59A      0.361666    60A      0.391792    61A      0.402141  
      62A      0.412675    63A      0.417294    64A      0.418534  
      65A      0.420748    66A      0.433399    67A      0.439880  
      68A      0.446301    69A      0.454732    70A      0.456155  
      71A      0.465799    72A      0.470958    73A      0.474720  
      74A      0.483278    75A      0.490349    76A      0.494277  
      77A      0.498999    78A      0.506889    79A      0.512088  
      80A      0.522359    81A      0.539247    82A      0.542707  
      83A      0.576380    84A      0.593082    85A      0.623412  
      86A      0.636631    87A      0.667478    88A      0.685753  
      89A      0.699149    90A      0.708002    91A      0.792045  
      92A      0.806246    93A      0.814926    94A      0.827282  
      95A      0.838387    96A      0.860015    97A      0.874563  
      98A      0.895313    99A      0.910987   100A      0.916900  
     101A      0.963796   102A      0.965836   103A      0.984211  
     104A      1.012003   105A      1.013779   106A      1.023511  
     107A      1.054071   108A      1.067169   109A      1.074037  
     110A      1.087700   111A      1.136559   112A      1.142518  
     113A      1.149505   114A      1.185811   115A      1.193526  
     116A      1.209992   117A      1.216524   118A      1.238360  
     119A      1.257245   120A      1.273649   121A      1.287691  
     122A      1.302654   123A      1.340780   124A      1.374214  
     125A      1.446222   126A      1.462505   127A      1.484152  
     128A      1.529568   129A      1.544707   130A      1.564658  
     131A      1.577658   132A      1.586746   133A      1.604367  
     134A      1.624450   135A      1.631352   136A      1.638073  
     137A      1.644552   138A      1.658892   139A      1.668401  
     140A      1.678632   141A      1.691536   142A      1.712240  
     143A      1.745235   144A      1.763619   145A      1.774682  
     146A      1.784390   147A      1.819237   148A      1.842104  
     149A      1.856828   150A      1.879803   151A      1.896121  
     152A      1.902101   153A      1.920586   154A      1.950772  
     155A      1.981009   156A      1.990012   157A      2.004302  
     158A      2.033849   159A      2.043395   160A      2.093345  
     161A      2.104542   162A      2.116151   163A      2.139027  
     164A      2.159014   165A      2.180088   166A      2.195727  
     167A      2.265256   168A      2.299304   169A      2.308818  
     170A      2.339121   171A      2.345894   172A      2.356869  
     173A      2.381368   174A      2.410593   175A      2.425859  
     176A      2.454193   177A      2.467311   178A      2.486978  
     179A      2.494934   180A      2.509930   181A      2.547038  
     182A      2.552994   183A      2.573727   184A      2.585303  
     185A      2.605537   186A      2.614579   187A      2.624025  
     188A      2.629585   189A      2.639180   190A      2.652034  
     191A      2.665280   192A      2.685265   193A      2.692274  
     194A      2.705210   195A      2.717200   196A      2.729202  
     197A      2.747411   198A      2.756587   199A      2.786432  
     200A      2.789366   201A      2.813353   202A      2.822169  
     203A      2.843349   204A      2.850264   205A      2.883529  
     206A      2.887754   207A      2.940226   208A      2.946888  
     209A      2.977516   210A      2.999496   211A      3.036201  
     212A      3.083457   213A      3.095567   214A      3.107728  
     215A      3.123946   216A      3.150736   217A      3.166711  
     218A      3.174671   219A      3.186088   220A      3.200610  
     221A      3.212029   222A      3.240288   223A      3.250403  
     224A      3.260196   225A      3.292824   226A      3.309004  
     227A      3.328822   228A      3.342023   229A      3.346121  
     230A      3.355604   231A      3.374443   232A      3.387460  
     233A      3.396466   234A      3.423281   235A      3.446851  
     236A      3.461018   237A      3.473185   238A      3.493591  
     239A      3.522315   240A      3.541786   241A      3.549760  
     242A      3.557073   243A      3.570527   244A      3.608013  
     245A      3.627879   246A      3.636698   247A      3.667074  
     248A      3.695745   249A      3.706294   250A      3.735513  
     251A      3.753494   252A      3.768027   253A      3.791444  
     254A      3.837887   255A      3.879721   256A      3.893833  
     257A      3.926569   258A      3.940918   259A      3.977121  
     260A      4.001279   261A      4.014819   262A      4.021046  
     263A      4.072019   264A      4.085639   265A      4.087289  
     266A      4.106634   267A      4.155967   268A      4.171594  
     269A      4.186961   270A      4.198326   271A      4.262411  
     272A      4.299324   273A      4.348078   274A      4.377660  
     275A      4.412082   276A      4.424535   277A      4.480730  
     278A      4.493022   279A      4.538334   280A      4.580407  
     281A      4.595850   282A      4.640969   283A      4.670153  
     284A      4.682372   285A      4.738179   286A      4.792295  
     287A      4.844669   288A      4.887255   289A      4.936908  
     290A      4.960764   291A      4.993941   292A      5.050226  
     293A      5.091137   294A      5.152560   295A     22.443370  
     296A     22.478961   297A     22.507075   298A     22.602896  
     299A     22.639414   300A     22.683882   301A     22.800226  

    Final Occupation by Irrep:
              A 
    DOCC [    28 ]

  @DF-RKS Final Energy:  -274.93740525998317

   => Energetics <=

    Nuclear Repulsion Energy =            329.8740200202741448
    One-Electron Energy =               -1022.8639386508471034
    Two-Electron Energy =                 450.7127608597295421
    DFT Exchange-Correlation Energy =     -32.6602474891398060
    Empirical Dispersion Energy =           0.0000000000000000
    VV10 Nonlocal Energy =                  0.0000000000000000
    Total Energy =                       -274.9374052599831657

Computation Completed


Properties will be evaluated at   0.000000,   0.000000,   0.000000 [a0]

Properties computed using the SCF density matrix

  Nuclear Dipole Moment: [e a0]
     X:     1.2396      Y:    -0.0272      Z:     0.2045

  Electronic Dipole Moment: [e a0]
     X:    -1.2791      Y:     0.0297      Z:    -0.2374

  Dipole Moment: [e a0]
     X:    -0.0395      Y:     0.0025      Z:    -0.0329     Total:     0.0515

  Dipole Moment: [D]
     X:    -0.1004      Y:     0.0064      Z:    -0.0837     Total:     0.1309


*** tstop() called on thinkpad at Sat Jul 10 13:46:35 2021
Module time:
	user time   =     101.42 seconds =       1.69 minutes
	system time =       0.76 seconds =       0.01 minutes
	total time  =         29 seconds =       0.48 minutes
Total time:
	user time   =     281.22 seconds =       4.69 minutes
	system time =       3.69 seconds =       0.06 minutes
	total time  =         81 seconds =       1.35 minutes

*** tstart() called on thinkpad
*** at Sat Jul 10 13:46:35 2021


         ------------------------------------------------------------
                                   SCF GRAD                          
                          Rob Parrish, Justin Turney,                
                       Andy Simmonett, and Alex Sokolov              
         ------------------------------------------------------------

  ==> Geometry <==

    Molecular point group: c1
    Full point group: C1

    Geometry (in Angstrom), charge = 0, multiplicity = 1:

       Center              X                  Y                   Z               Mass       
    ------------   -----------------  -----------------  -----------------  -----------------
         C            0.975732136123     0.032644477587    -0.329707091914    12.000000000000
         C            0.320806575885    -1.307281635281     0.048593882835    12.000000000000
         C            0.281729634993     1.173736814294     0.406619715607    12.000000000000
         C           -1.174116077937    -1.176406949443     0.377174458379    12.000000000000
         C           -1.187043708581     1.310063505494    -0.023364930733    12.000000000000
         C           -1.806706075768    -0.040083202621    -0.416440678739    12.000000000000
         C            2.478546684743     0.009759810539    -0.081193306595    12.000000000000
         H            0.821041682012     0.198424869598    -1.402866326770     1.007825032230
         H            0.848533919868    -1.730466750381     0.909831634161     1.007825032230
         H            0.458167464466    -2.016111818270    -0.774002629418     1.007825032230
         H            0.813395095536     2.114906394268     0.238680839029     1.007825032230
         H            0.343373163227     0.974241731700     1.482106715216     1.007825032230
         H           -1.303595291803    -0.971611268214     1.444775868197     1.007825032230
         H           -1.688694580671    -2.121105373580     0.182292509468     1.007825032230
         H           -1.260013533241     2.002572833068    -0.866980843744     1.007825032230
         H           -1.763979531096     1.757490050591     0.791371908401     1.007825032230
         H           -1.648176016267    -0.226941799411    -1.483413476636     1.007825032230
         H           -2.889230279062    -0.017254100021    -0.266276487605     1.007825032230
         H            2.954611071240     0.928698816594    -0.433317793708     1.007825032230
         H            2.685194580756    -0.088591504075     0.988271890918     1.007825032230
         H            2.951635469267    -0.833219259581    -0.592365101255     1.007825032230

  Nuclear repulsion =  329.874020020274145

  ==> Basis Set <==

  Basis Set: DEF2-TZVP
    Blend: DEF2-TZVP
    Number of shells: 133
    Number of basis function: 301
    Number of Cartesian functions: 336
    Spherical Harmonics?: true
    Max angular momentum: 3

  ==> DFJKGrad: Density-Fitted SCF Gradients <==

    Gradient:                    1
    J tasked:                  Yes
    K tasked:                  Yes
    wK tasked:                  No
    OpenMP threads:              4
    Integrals threads:           4
    Memory [MiB]:             5722
    Schwarz Cutoff:          0E+00
    Fitting Condition:       1E-10

   => Auxiliary Basis Set <=

  Basis Set: (DEF2-TZVP AUX)
    Blend: DEF2-TZVP-JKFIT
    Number of shells: 259
    Number of basis function: 777
    Number of Cartesian functions: 903
    Spherical Harmonics?: true
    Max angular momentum: 4

  ==> DFT Potential <==

   => Composite Functional: PBE0 <= 

    PBE0 Hyb-GGA Exchange-Correlation Functional

    C. Adamo and V. Barone, J. Chem. Phys. 110, 6158 (1999)
    M. Ernzerhof and G. E. Scuseria, J. Chem. Phys. 110, 5029 (1999)

    Deriv               =              1
    GGA                 =           TRUE
    Meta                =          FALSE

    Exchange Hybrid     =           TRUE
    MP2 Hybrid          =          FALSE

   => Exchange Functionals <=

    0.7500   Perdew, Burke & Ernzerhof

   => Exact (HF) Exchange <=

    0.2500               HF 

   => Correlation Functionals <=

    1.0000   Perdew, Burke & Ernzerhof

   => Molecular Quadrature <=

    Radial Scheme          =       TREUTLER
    Pruning Scheme         =           FLAT
    Nuclear Scheme         =       TREUTLER

    BS radius alpha        =              1
    Pruning alpha          =              1
    Radial Points          =             75
    Spherical Points       =            302
    Total Points           =         472051
    Total Blocks           =           3478
    Max Points             =            256
    Max Functions          =            291


  -Total Gradient:
     Atom            X                  Y                   Z
    ------   -----------------  -----------------  -----------------
       1       -0.000913956516    -0.000264819707    -0.000268704698
       2        0.000910664354    -0.001065896977     0.000133172547
       3        0.001071399703     0.001627804176     0.001057379816
       4       -0.000972085944    -0.001809961187     0.001025560311
       5       -0.000793129575     0.001246914303     0.000041286256
       6       -0.001684133838     0.000133251299    -0.001158620906
       7        0.003184522419     0.000104452260     0.000425923201
       8        0.000312387063     0.000062208792     0.000892458637
       9       -0.000138159376     0.000409177991    -0.000304356679
      10       -0.000486151326     0.000216117242     0.000057460700
      11        0.000019114783    -0.000123336169    -0.000232004131
      12       -0.000060043327    -0.000328761854    -0.000965737925
      13        0.000138111089     0.000189361803    -0.000674793846
      14       -0.000123177909    -0.000003056645    -0.000115865066
      15        0.000291744124    -0.000170117148     0.000095967662
      16       -0.000065021046    -0.000222913130    -0.000094088184
      17        0.000243768679    -0.000045864820     0.000635764325
      18        0.000037682659    -0.000139299945     0.000172226156
      19       -0.000099676003     0.000065957354    -0.000097296526
      20       -0.000711597849     0.000140138441    -0.000496236645
      21       -0.000162126549    -0.000008339927    -0.000135482820


*** tstop() called on thinkpad at Sat Jul 10 13:46:49 2021
Module time:
	user time   =      46.72 seconds =       0.78 minutes
	system time =       0.42 seconds =       0.01 minutes
	total time  =         14 seconds =       0.23 minutes
Total time:
	user time   =     327.94 seconds =       5.47 minutes
	system time =       4.11 seconds =       0.07 minutes
	total time  =         95 seconds =       1.58 minutes

			-----------------------------------------
			 OPTKING 2.0: for geometry optimizations 
			  - R.A. King,  Bethel University        
			-----------------------------------------

	Previous internal coordinate definitions found.
	---Fragment 1 Geometry and Gradient---
	 C           1.8438665091        0.0616891221       -0.6230561053
	 C           0.6062365677       -2.4704042595        0.0918291299
	 C           0.5323918516        2.2180411224        0.7683998997
	 C          -2.2187578268       -2.2230869465        0.7127564279
	 C          -2.2431875082        2.4756612323       -0.0441533200
	 C          -3.4141796724       -0.0757462752       -0.7869588303
	 C           4.6837744233        0.0184433690       -0.1534331127
	 H           1.5515439166        0.3749686600       -2.6510331482
	 H           1.6034967167       -3.2701082274        1.7193326088
	 H           0.8658110274       -3.8098991748       -1.4626529900
	 H           1.5370939624        3.9965938661        0.4510414172
	 H           0.6488812373        1.8410500529        2.8007757805
	 H          -2.4634380799       -1.8360791973        2.7302307036
	 H          -3.1911702670       -4.0083082393        0.3444829176
	 H          -2.3810804922        3.7843142008       -1.6383563507
	 H          -3.3334382047        3.3211748638        1.4954761703
	 H          -3.1146012773       -0.4288578473       -2.8032452017
	 H          -5.4598539408       -0.0326055236       -0.5031896352
	 H           5.5834057319        1.7549864164       -0.8188519554
	 H           5.0742823512       -0.1674136797        1.8675632113
	 H           5.5777826591       -1.5745562031       -1.1194078077
	            -0.0009139565       -0.0002648197       -0.0002687047
	             0.0009106644       -0.0010658970        0.0001331725
	             0.0010713997        0.0016278042        0.0010573798
	            -0.0009720859       -0.0018099612        0.0010255603
	            -0.0007931296        0.0012469143        0.0000412863
	            -0.0016841338        0.0001332513       -0.0011586209
	             0.0031845224        0.0001044523        0.0004259232
	             0.0003123871        0.0000622088        0.0008924586
	            -0.0001381594        0.0004091780       -0.0003043567
	            -0.0004861513        0.0002161172        0.0000574607
	             0.0000191148       -0.0001233362       -0.0002320041
	            -0.0000600433       -0.0003287619       -0.0009657379
	             0.0001381111        0.0001893618       -0.0006747938
	            -0.0001231779       -0.0000030566       -0.0001158651
	             0.0002917441       -0.0001701171        0.0000959677
	            -0.0000650210       -0.0002229131       -0.0000940882
	             0.0002437687       -0.0000458648        0.0006357643
	             0.0000376827       -0.0001392999        0.0001722262
	            -0.0000996760        0.0000659574       -0.0000972965
	            -0.0007115978        0.0001401384       -0.0004962366
	            -0.0001621265       -0.0000083399       -0.0001354828

	---Fragment 1 Intrafragment Coordinates---
	 - Coordinate -           - BOHR/RAD -       - ANG/DEG -
	 R(1,2)           =         2.907625	       1.538649
	 R(1,3)           =         2.882008	       1.525093
	 R(1,7)           =         2.878801	       1.523396
	 R(1,8)           =         2.072749	       1.096851
	 R(2,4)           =         2.902983	       1.536192
	 R(2,9)           =         2.069498	       1.095131
	 R(2,10)          =         2.068342	       1.094520
	 R(3,5)           =         2.903524	       1.536479
	 R(3,11)          =         2.067219	       1.093925
	 R(3,12)          =         2.070325	       1.095569
	 R(4,6)           =         2.879106	       1.523557
	 R(4,13)          =         2.068779	       1.094751
	 R(4,14)          =         2.065969	       1.093264
	 R(5,6)           =         2.903905	       1.536680
	 R(5,15)          =         2.067141	       1.093884
	 R(5,16)          =         2.067365	       1.094003
	 R(6,17)          =         2.068779	       1.094751
	 R(6,18)          =         2.065713	       1.093128
	 R(7,19)          =         2.065841	       1.093196
	 R(7,20)          =         2.066752	       1.093678
	 R(7,21)          =         2.066399	       1.093491
	 B(1,2,4)         =         1.974267	     113.117158
	 B(1,2,9)         =         1.901550	     108.950813
	 B(1,2,10)        =         1.902626	     109.012468
	 B(1,3,5)         =         1.945800	     111.486128
	 B(1,3,11)        =         1.926710	     110.392329
	 B(1,3,12)        =         1.888209	     108.186426
	 B(1,7,19)        =         1.943809	     111.372072
	 B(1,7,20)        =         1.925450	     110.320165
	 B(1,7,21)        =         1.941335	     111.230303
	 B(2,1,3)         =         1.916838	     109.826724
	 B(2,1,7)         =         1.946265	     111.512782
	 B(2,1,8)         =         1.888248	     108.188630
	 B(2,4,6)         =         1.934969	     110.865558
	 B(2,4,13)        =         1.917310	     109.853795
	 B(2,4,14)        =         1.924411	     110.260644
	 B(3,1,7)         =         1.962092	     112.419602
	 B(3,1,8)         =         1.870373	     107.164475
	 B(3,5,6)         =         1.959627	     112.278338
	 B(3,5,15)        =         1.913211	     109.618902
	 B(3,5,16)        =         1.909218	     109.390109
	 B(4,2,9)         =         1.910969	     109.490454
	 B(4,2,10)        =         1.915644	     109.758340
	 B(4,6,5)         =         1.933312	     110.770605
	 B(4,6,17)        =         1.896789	     108.678027
	 B(4,6,18)        =         1.933923	     110.805599
	 B(5,3,11)        =         1.923355	     110.200137
	 B(5,3,12)        =         1.922678	     110.161313
	 B(5,6,17)        =         1.918647	     109.930367
	 B(5,6,18)        =         1.923938	     110.233552
	 B(6,4,13)        =         1.895836	     108.623419
[...]
	 B(15,5,16)       =         1.852539	     106.142643
	 B(17,6,18)       =         1.851566	     106.086892
	 B(19,7,20)       =         1.880800	     107.761898
	 B(19,7,21)       =         1.882365	     107.851588
	 B(20,7,21)       =         1.877190	     107.555042
	 D(1,2,4,6)       =         0.524247	      30.037119
	 D(1,2,4,13)      =        -1.574626	     -90.219422
	 D(1,2,4,14)      =         2.675062	     153.269772
	 D(1,3,5,6)       =         0.543791	      31.156939
	 D(1,3,5,15)      =        -1.583426	     -90.723602
	 D(1,3,5,16)      =         2.673448	     153.177267
	 D(2,1,3,5)       =        -1.124773	     -64.444730
	 D(2,1,3,11)      =         3.014154	     172.698301
	 D(2,1,3,12)      =         0.994851	      57.000763
	 D(2,1,7,19)      =         3.059064	     175.271430
	 D(2,1,7,20)      =        -1.130807	     -64.790476
	 D(2,1,7,21)      =         0.955970	      54.773039
	 D(2,4,6,5)       =        -1.112925	     -63.765887
	 D(2,4,6,17)      =         0.999513	      57.267885
	 D(2,4,6,18)      =         3.030285	     173.622541
	 D(3,1,2,4)       =         0.550055	      31.515858
	 D(3,1,2,9)       =        -1.578037	     -90.414833
	 D(3,1,2,10)      =         2.691439	     154.208091
	 D(3,1,7,19)      =        -1.068073	     -61.196089
	 D(3,1,7,20)      =         1.025241	      58.742005
	 D(3,1,7,21)      =         3.112018	     178.305521
	 D(3,5,6,4)       =         0.543661	      31.149500
	 D(3,5,6,17)      =        -1.557140	     -89.217533
	 D(3,5,6,18)      =         2.690748	     154.168487
	 D(4,2,1,7)       =         2.734345	     156.666426
	 D(4,2,1,8)       =        -1.486147	     -85.149924
	 D(4,6,5,15)      =         2.674684	     153.248132
	 D(4,6,5,16)      =        -1.581737	     -90.626883
	 D(5,3,1,7)       =         2.985395	     171.050545
	 D(5,3,1,8)       =         0.921268	      52.784756
	 D(5,6,4,13)      =         0.997933	      57.177321
	 D(5,6,4,14)      =         3.026366	     173.398014
	 D(6,4,2,9)       =         2.647561	     151.694057
	 D(6,4,2,10)      =        -1.606863	     -92.066442
	 D(6,5,3,11)      =         2.690794	     154.171145
	 D(6,5,3,12)      =        -1.557080	     -89.214136
	 D(7,1,2,9)       =         0.606253	      34.735736
	 D(7,1,2,10)      =        -1.407457	     -80.641340
	 D(7,1,3,11)      =         0.841137	      48.193576
	 D(7,1,3,12)      =        -1.178166	     -67.503962
	 D(8,1,2,9)       =         2.668947	     152.919386
	 D(8,1,2,10)      =         0.655237	      37.542310
	 D(8,1,3,11)      =        -1.222991	     -70.072214
	 D(8,1,3,12)      =         3.040891	     174.230249
	 D(8,1,7,19)      =         0.991554	      56.811873
	 D(8,1,7,20)      =         3.084869	     176.749967
	 D(8,1,7,21)      =        -1.111539	     -63.686518
	 D(9,2,4,13)      =         0.548688	      31.437516
	 D(9,2,4,14)      =        -1.484809	     -85.073290
	 D(10,2,4,13)     =         2.577450	     147.677017
	 D(10,2,4,14)     =         0.543953	      31.166211
	 D(11,3,5,15)     =         0.563577	      32.290605
	 D(11,3,5,16)     =        -1.462735	     -83.808526
	 D(12,3,5,15)     =         2.598888	     148.905323
	 D(12,3,5,16)     =         0.572576	      32.806193
	 D(13,4,6,17)     =         3.110370	     178.211093
	 D(13,4,6,18)     =        -1.142043	     -65.434250
	 D(14,4,6,17)     =        -1.144381	     -65.568214
	 D(14,4,6,18)     =         0.886391	      50.786442
	 D(15,5,6,17)     =         0.573883	      32.881098
	 D(15,5,6,18)     =        -1.461414	     -83.732881
	 D(16,5,6,17)     =         2.600647	     149.006084
	 D(16,5,6,18)     =         0.565349	      32.392104

	Current energy   :      -274.9374647861

	Energy change for the previous step:
		Projected    :        -0.0000002112
		Actual       :        -0.0000000008
	Energy ratio indicates iffy step: Trust radius decreased to 7.812e-03.


	Performing BFGS update.
	Previous computed or guess Hessian on step 1.
	Steps to be used in Hessian update: 5 4
	Taking RFO optimization step.
	Going to follow RFO solution 1.
	Using RFO vector 1.
	Norm of target step-size    0.00322
	Projected energy change by RFO approximation:         0.0000001377

	Back-transformation to cartesian coordinates...
	Successfully converged to displaced geometry.

	--- Internal Coordinate Step in ANG or DEG, aJ/ANG or AJ/DEG ---
	 ---------------------------------------------------------------------------
	   Coordinate                Previous        Force       Change         New 
	   ----------                --------       ------       ------       ------
	    1 R(1,2)          =      1.536618     0.000130     0.000016     1.536634
	    2 R(1,3)          =      1.523615     0.000047     0.000014     1.523629
	    3 R(1,7)          =      1.518923    -0.000114    -0.000019     1.518904
	    4 R(1,8)          =      1.098268     0.000006    -0.000000     1.098268
	    5 R(2,4)          =      1.534009    -0.000073    -0.000009     1.534000
	    6 R(2,9)          =      1.095979    -0.000036    -0.000005     1.095974
	    7 R(2,10)         =      1.095002     0.000023     0.000002     1.095004
	    8 R(3,5)          =      1.534007    -0.000100    -0.000009     1.533998
	    9 R(3,11)         =      1.094245    -0.000006    -0.000002     1.094243
	   10 R(3,12)         =      1.097030     0.000012     0.000002     1.097032
	   11 R(4,6)          =      1.521149    -0.000062     0.000000     1.521150
	   12 R(4,13)         =      1.095802     0.000010     0.000003     1.095805
	   13 R(4,14)         =      1.093320    -0.000008    -0.000001     1.093319
	   14 R(5,6)          =      1.534097     0.000097     0.000011     1.534108
	   15 R(5,15)         =      1.094282    -0.000002    -0.000000     1.094282
	   16 R(5,16)         =      1.094332    -0.000007    -0.000001     1.094331
	   17 R(6,17)         =      1.095709     0.000005     0.000001     1.095710
	   18 R(6,18)         =      1.093323    -0.000017    -0.000001     1.093322
	   19 R(7,19)         =      1.093334     0.000039     0.000007     1.093341
	   20 R(7,20)         =      1.094757     0.000040     0.000008     1.094765
	   21 R(7,21)         =      1.093705     0.000027     0.000007     1.093712
	   22 B(1,2,4)        =    112.934662     0.000000    -0.000794   112.933868
	   23 B(1,2,9)        =    109.003996    -0.000000    -0.001020   109.002977
	   24 B(1,2,10)       =    109.022915     0.000000    -0.000617   109.022298
	   25 B(1,3,5)        =    111.444804    -0.000001    -0.001459   111.443345
	   26 B(1,3,11)       =    110.470786     0.000000    -0.000866   110.469921
	   27 B(1,3,12)       =    108.377622     0.000000     0.001520   108.379142
	   28 B(1,7,19)       =    111.501006    -0.000000    -0.000700   111.500306
	   29 B(1,7,20)       =    110.670875     0.000000     0.001351   110.672226
	   30 B(1,7,21)       =    111.328055     0.000000     0.000749   111.328804
	   31 B(2,1,3)        =    109.622311     0.000000    -0.000403   109.621908
	   32 B(2,1,7)        =    111.377438    -0.000000    -0.000782   111.376656
	   33 B(2,1,8)        =    108.169788    -0.000000    -0.002318   108.167470
	   34 B(2,4,6)        =    110.929108    -0.000000    -0.001073   110.928036
	   35 B(2,4,13)       =    109.886132     0.000000     0.001462   109.887594
	   36 B(2,4,14)       =    110.220658     0.000000    -0.000398   110.220261
	   37 B(3,1,7)        =    112.493184    -0.000000     0.001300   112.494484
	   38 B(3,1,8)        =    107.273003     0.000000     0.001411   107.274414
	   39 B(3,5,6)        =    112.108559     0.000000    -0.000087   112.108472
	   40 B(3,5,15)       =    109.817336    -0.000000    -0.001440   109.815896
	   41 B(3,5,16)       =    109.366666    -0.000000     0.000612   109.367278
	   42 B(4,2,9)        =    109.490002    -0.000000     0.000823   109.490824
	   43 B(4,2,10)       =    110.074920    -0.000000     0.000306   110.075226
	   44 B(4,6,5)        =    110.693527     0.000000    -0.000865   110.692662
	   45 B(4,6,17)       =    108.877605    -0.000000     0.000040   108.877645
	   46 B(4,6,18)       =    110.886613    -0.000000    -0.000416   110.886197
	   47 B(5,3,11)       =    110.195915     0.000000    -0.000840   110.195075
	   48 B(5,3,12)       =    110.214710     0.000000     0.000933   110.215643
	   49 B(5,6,17)       =    109.999358     0.000000     0.000050   109.999408
	   50 B(5,6,18)       =    110.185297     0.000000     0.000515   110.185812
	   51 B(6,4,13)       =    108.726964    -0.000000     0.000337   108.727302
	   52 B(6,4,14)       =    110.907989     0.000000    -0.000463   110.907525
	   53 B(6,5,15)       =    109.435334    -0.000000    -0.000821   109.434513
	   54 B(6,5,16)       =    109.793531     0.000000     0.001171   109.794702
	   55 B(7,1,8)        =    107.710522     0.000000     0.000744   107.711267
	   56 B(9,2,10)       =    106.078014     0.000000     0.001426   106.079439
	   57 B(11,3,12)      =    105.977321    -0.000000     0.000881   105.978202
	   58 B(13,4,14)      =    106.040167    -0.000000     0.000238   106.040405
	   59 B(15,5,16)      =    106.142643     0.000000     0.000603   106.143247
	   60 B(17,6,18)      =    106.086892     0.000000     0.000742   106.087634
	   61 B(19,7,20)      =    107.761898    -0.000000    -0.000401   107.761496
	   62 B(19,7,21)      =    107.851588    -0.000000    -0.000678   107.850910
	   63 B(20,7,21)      =    107.555042    -0.000000    -0.000394   107.554648
	   64 D(1,2,4,6)      =     30.037119     0.000000    -0.010834    30.026285
	   65 D(1,2,4,13)     =    -90.219422     0.000000    -0.011522   -90.230944
	   66 D(1,2,4,14)     =    153.269772    -0.000000    -0.012443   153.257329
	   67 D(1,3,5,6)      =     31.156939     0.000000    -0.012071    31.144868
	   68 D(1,3,5,15)     =    -90.723602     0.000000    -0.009954   -90.733556
	   69 D(1,3,5,16)     =    153.177267     0.000000    -0.010214   153.167053
	   70 D(2,1,3,5)      =    -64.444730     0.000000    -0.001573   -64.446302
	   71 D(2,1,3,11)     =    172.698301     0.000000     0.001136   172.699436
	   72 D(2,1,3,12)     =     57.000763     0.000000    -0.000320    57.000443
	   73 D(2,1,7,19)     =    175.271430    -0.000000    -0.057252   175.214178
	   74 D(2,1,7,20)     =    -64.790476    -0.000000    -0.057315   -64.847791
	   75 D(2,1,7,21)     =     54.773039    -0.000000    -0.056423    54.716616
	   76 D(2,4,6,5)      =    -63.765887    -0.000000    -0.003077   -63.768964
	   77 D(2,4,6,17)     =     57.267885    -0.000000    -0.003531    57.264353
	   78 D(2,4,6,18)     =    173.622541    -0.000000    -0.002845   173.619697
	   79 D(3,1,2,4)      =     31.515858     0.000000     0.013003    31.528861
	   80 D(3,1,2,9)      =    -90.414833     0.000000     0.013213   -90.401620
	   81 D(3,1,2,10)     =    154.208091     0.000000     0.012408   154.220499
	   82 D(3,1,7,19)     =    -61.196089    -0.000000    -0.057405   -61.253494
	   83 D(3,1,7,20)     =     58.742005    -0.000000    -0.057468    58.684537
	   84 D(3,1,7,21)     =    178.305521    -0.000000    -0.056576   178.248944
	   85 D(3,5,6,4)      =     31.149500     0.000000     0.013907    31.163407
	   86 D(3,5,6,17)     =    -89.217533     0.000000     0.014381   -89.203153
	   87 D(3,5,6,18)     =    154.168487     0.000000     0.013142   154.181629
	   88 D(4,2,1,7)      =    156.666426     0.000000     0.013828   156.680254
	   89 D(4,2,1,8)      =    -85.149924     0.000000     0.012846   -85.137078
	   90 D(4,6,5,15)     =    153.248132    -0.000000     0.011442   153.259574
	   91 D(4,6,5,16)     =    -90.626883     0.000000     0.012365   -90.614517
	   92 D(5,3,1,7)      =    171.050545     0.000000    -0.001189   171.049356
	   93 D(5,3,1,8)      =     52.784756    -0.000000    -0.003750    52.781006
	   94 D(5,6,4,13)     =     57.177321     0.000000    -0.001716    57.175605
	   95 D(5,6,4,14)     =    173.398014    -0.000000    -0.001490   173.396523
	   96 D(6,4,2,9)      =    151.694057     0.000000    -0.012087   151.681969
	   97 D(6,4,2,10)     =    -92.066442     0.000000    -0.009708   -92.076150
	   98 D(6,5,3,11)     =    154.171145    -0.000000    -0.014784   154.156361
	   99 D(6,5,3,12)     =    -89.214136    -0.000000    -0.013653   -89.227789
	  100 D(7,1,2,9)      =     34.735736     0.000000     0.014037    34.749773
	  101 D(7,1,2,10)     =    -80.641340     0.000000     0.013233   -80.628107
	  102 D(7,1,3,11)     =     48.193576     0.000000     0.001519    48.195095
	  103 D(7,1,3,12)     =    -67.503962    -0.000000     0.000064   -67.503898
	  104 D(8,1,2,9)      =    152.919386     0.000000     0.013055   152.932441
	  105 D(8,1,2,10)     =     37.542310    -0.000000     0.012251    37.554560
	  106 D(8,1,3,11)     =    -70.072214     0.000000    -0.001041   -70.073255
	  107 D(8,1,3,12)     =    174.230249    -0.000000    -0.002497   174.227752
	  108 D(8,1,7,19)     =     56.811873    -0.000000    -0.054439    56.757434
	  109 D(8,1,7,20)     =    176.749967    -0.000000    -0.054501   176.695465
	  110 D(8,1,7,21)     =    -63.686518    -0.000000    -0.053610   -63.740128
	  111 D(9,2,4,13)     =     31.437516     0.000000    -0.012775    31.424741
	  112 D(9,2,4,14)     =    -85.073290    -0.000000    -0.013696   -85.086986
	  113 D(10,2,4,13)    =    147.677017     0.000000    -0.010396   147.666622
	  114 D(10,2,4,14)    =     31.166211    -0.000000    -0.011317    31.154895
	  115 D(11,3,5,15)    =     32.290605    -0.000000    -0.012667    32.277937
	  116 D(11,3,5,16)    =    -83.808526     0.000000    -0.012928   -83.821454
	  117 D(12,3,5,15)    =    148.905323    -0.000000    -0.011536   148.893787
	  118 D(12,3,5,16)    =     32.806193     0.000000    -0.011797    32.794396
	  119 D(13,4,6,17)    =    178.211093     0.000000    -0.002171   178.208922
	  120 D(13,4,6,18)    =    -65.434250    -0.000000    -0.001484   -65.435734
	  121 D(14,4,6,17)    =    -65.568214     0.000000    -0.001945   -65.570159
	  122 D(14,4,6,18)    =     50.786442    -0.000000    -0.001258    50.785184
	  123 D(15,5,6,17)    =     32.881098     0.000000     0.011916    32.893015
	  124 D(15,5,6,18)    =    -83.732881    -0.000000     0.010678   -83.722203
	  125 D(16,5,6,17)    =    149.006084     0.000000     0.012839   149.018923
	  126 D(16,5,6,18)    =     32.392104    -0.000000     0.011601    32.403705
	 ---------------------------------------------------------------------------
	Successfully symmetrized geometry.

  ==> Convergence Check <==

  Measures of convergence in internal coordinates in au.
  Criteria marked as inactive (o), active & met (*), and active & unmet ( ).
  ---------------------------------------------------------------------------------------------
   Step     Total Energy     Delta E     MAX Force     RMS Force      MAX Disp      RMS Disp   
  ---------------------------------------------------------------------------------------------
    Convergence Criteria    1.00e-06 *    3.00e-04 *             o    1.20e-03 *             o
  ---------------------------------------------------------------------------------------------
      6    -274.93746479   -8.26e-10 *    1.58e-05 *    3.29e-06 o    1.00e-03 *    2.87e-04 o  ~
  ---------------------------------------------------------------------------------------------


  **** Optimization is complete! (in 6 steps) ****

  ==> Optimization Summary <==

  Measures of convergence in internal coordinates in au.
  --------------------------------------------------------------------------------------------------------------- ~
   Step         Total Energy             Delta E       MAX Force       RMS Force        MAX Disp        RMS Disp  ~
  --------------------------------------------------------------------------------------------------------------- ~
      1    -274.936827728506   -274.936827728506      0.00364185      0.00103613      0.04449909      0.01680082  ~
      2    -274.937405259983     -0.000577531477      0.00212836      0.00040590      0.02644551      0.01028166  ~
      3    -274.937463712496     -0.000058452512      0.00034565      0.00008029      0.02310951      0.01113591  ~
      4    -274.937454264034      0.000009448461      0.00078509      0.00013176      0.01295018      0.00625735  ~
      5    -274.937464785266     -0.000010521232      0.00006187      0.00000852      0.00226011      0.00063889  ~
      6    -274.937464786092     -0.000000000826      0.00001576      0.00000329      0.00100300      0.00028682  ~
  --------------------------------------------------------------------------------------------------------------- ~

	Writing optimization data to binary file.
	Final energy is   -274.9374647860921
	Final (previous) structure:
	Cartesian Geometry (in Angstrom)
	    C     0.9720996685   0.0330695729  -0.3318897492
	    C     0.3235569756  -1.3050446844   0.0554571038
	    C     0.2796016137   1.1705482584   0.4083746420
	    C    -1.1703681178  -1.1739962880   0.3782545344
	    C    -1.1870623309   1.3075102013  -0.0197810080
	    C    -1.8008398350  -0.0410841244  -0.4173023050
	    C     2.4717812077   0.0115000082  -0.0918548430
	    H     0.8079059374   0.1951056591  -1.4056578331
	    H     0.8501585016  -1.7189944260   0.9229279740
	    H     0.4706158944  -2.0219579368  -0.7590601820
	    H     0.8106120207   2.1131540195   0.2443816225
	    H     0.3431013654   0.9716027139   1.4853446212
	    H    -1.3044229007  -0.9707204650   1.4466600017
	    H    -1.6833375404  -2.1197620265   0.1839905214
	    H    -1.2647997277   2.0046582787  -0.8596593487
	    H    -1.7639195440   1.7505989654   0.7978190433
	    H    -1.6401819754  -0.2256721328  -1.4853354173
	    H    -2.8844132340  -0.0195483901  -0.2732150587
	    H     2.9471805654   0.9310761445  -0.4436409694
	    H     2.6908179710  -0.0903298775   0.9759217704
	    H     2.9450889639  -0.8290126506  -0.6073234270
	Saving final (previous) structure.
			--------------------------
			 OPTKING Finished Execution 
			--------------------------

    Final optimized geometry and variables:
    Molecular point group: c1
    Full point group: C1

    Geometry (in Angstrom), charge = 0, multiplicity = 1:

    C            0.972099672287     0.033069572981    -0.331889750493
    C            0.323556976845    -1.305044689524     0.055457104059
    C            0.279601614834     1.170548263004     0.408374643624
    C           -1.170368122430    -1.173996292658     0.378254535868
    C           -1.187062335576     1.307510206482    -0.019781008107
    C           -1.800839842116    -0.041084124577    -0.417302306688
    C            2.471781217451     0.011500008202    -0.091854843358
    H            0.807905940570     0.195105659838    -1.405657838626
    H            0.850158504898    -1.718994432718     0.922927977639
    H            0.470615896211    -2.021957944722    -0.759060185003
    H            0.810612023897     2.113154027793     0.244381623504
    H            0.343101366707     0.971602717698     1.485344627063
    H           -1.304422905869    -0.970720468832     1.446660007361
    H           -1.683337546997    -2.119762034879     0.183990522100
    H           -1.264799732691     2.004658286546    -0.859659352057
    H           -1.763919550963     1.750598972294     0.797819046484
    H           -1.640181981872    -0.225672133733    -1.485335423102
    H           -2.884413245357    -0.019548390159    -0.273215059813
    H            2.947180576964     0.931076148207    -0.443640971168
    H            2.690817981531    -0.090329877836     0.975921774208
    H            2.945088975429    -0.829012653830    -0.607323429370

	Removing binary optimization data file.
	Cleaning optimization helper files.

    Psi4 stopped on: Saturday, 10 July 2021 01:49PM
    Psi4 wall time for execution: 0:04:09.00

*** Psi4 exiting successfully. Buy a developer a beer!
