      -----------------------------------------------------------      
     |                   =====================                   |     
     |                           x T B                           |     
     |                   =====================                   |     
     |                         S. Grimme                         |     
     |          Mulliken Center for Theoretical Chemistry        |     
     |                    University of Bonn                     |     
      -----------------------------------------------------------      

   * xtb version 6.4.1-2.fc34.fc34 compiled by Fedora project on Wed Jun 30 15:53:26 UTC 2021

   xtb is free software: you can redistribute it and/or modify it under
   the terms of the GNU Lesser General Public License as published by
   the Free Software Foundation, either version 3 of the License, or
   (at your option) any later version.
   
   xtb is distributed in the hope that it will be useful,
   but WITHOUT ANY WARRANTY; without even the implied warranty of
   MERCHANTABILITY or FITNESS FOR A PARTICULAR PURPOSE.  See the
   GNU Lesser General Public License for more details.
   
   Cite this work as:
   * C. Bannwarth, E. Caldeweyher, S. Ehlert, A. Hansen, P. Pracht,
     J. Seibert, S. Spicher, S. Grimme, WIREs Comput. Mol. Sci., 2020, 11,
     e01493. DOI: 10.1002/wcms.1493
   
   for GFN2-xTB:
   * C. Bannwarth, S. Ehlert and S. Grimme., J. Chem. Theory Comput., 2019,
     15, 1652-1671. DOI: 10.1021/acs.jctc.8b01176
   for GFN1-xTB:
   * S. Grimme, C. Bannwarth, P. Shushkov, J. Chem. Theory Comput., 2017,
     13, 1989-2009. DOI: 10.1021/acs.jctc.7b00118
   for GFN0-xTB:
   * P. Pracht, E. Caldeweyher, S. Ehlert, S. Grimme, ChemRxiv, 2019, preprint.
     DOI: 10.26434/chemrxiv.8326202.v1
   for GFN-FF:
   * S. Spicher and S. Grimme, Angew. Chem. Int. Ed., 2020, 59, 15665-15673.
     DOI: 10.1002/anie.202004239
   
   for DFT-D4:
   * E. Caldeweyher, C. Bannwarth and S. Grimme, J. Chem. Phys., 2017,
     147, 034112. DOI: 10.1063/1.4993215
   * E. Caldeweyher, S. Ehlert, A. Hansen, H. Neugebauer, S. Spicher,
     C. Bannwarth and S. Grimme, J. Chem. Phys., 2019, 150, 154122.
     DOI: 10.1063/1.5090222
   * E. Caldeweyher, J.-M. Mewes, S. Ehlert and S. Grimme, Phys. Chem. Chem. Phys.
     2020, 22, 8499-8512. DOI: 10.1039/D0CP00502A
   
   for sTDA-xTB:
   * S. Grimme and C. Bannwarth, J. Chem. Phys., 2016, 145, 054103.
     DOI: 10.1063/1.4959605
   
   in the mass-spec context:
   * V. Asgeirsson, C. Bauer and S. Grimme, Chem. Sci., 2017, 8, 4879.
     DOI: 10.1039/c7sc00601b
   * J. Koopman and S. Grimme, ACS Omega 2019, 4, 12, 15120-15133.
     DOI: 10.1021/acsomega.9b02011
   
   for metadynamics refer to:
   * S. Grimme, J. Chem. Theory Comput., 2019, 155, 2847-2862
     DOI: 10.1021/acs.jctc.9b00143
   
   for SPH calculations refer to:
   * S. Spicher and S. Grimme, J. Chem. Theory Comput., 2021, 17, 1701-1714
     DOI: 10.1021/acs.jctc.0c01306
   
   with help from (in alphabetical order)
   P. Atkinson, C. Bannwarth, F. Bohle, G. Brandenburg, E. Caldeweyher
   M. Checinski, S. Dohm, S. Ehlert, S. Ehrlich, I. Gerasimov, J. Koopman
   C. Lavigne, S. Lehtola, F. März, M. Müller, F. Musil, H. Neugebauer
   J. Pisarek, C. Plett, P. Pracht, J. Seibert, P. Shushkov, S. Spicher
   M. Stahn, M. Steiner, T. Strunk, J. Stückrath, T. Rose, and J. Unsleber
   
 * started run on 2021/08/09 at 17:30:49.913     

           -------------------------------------------------
          |                Calculation Setup                |
           -------------------------------------------------

          program call               : xtb -gfn 2 conformer4.xyz
          hostname                   : thinkpad
          coordinate file            : conformer4.xyz
          omp threads                :                     4
          number of atoms            :                    21
          number of electrons        :                    42
          charge                     :                     0
          spin                       :                   0.0
          first test random number   :      0.42186493427953

   ID    Z sym.   atoms
    1    6 C      1-7
    2    1 H      8-21
########################################################################
[WARNING] Please study the warnings concerning your input carefully
-1- prog_main_parseArguments: the use of '-gfn' is discouraged, please use '--gfn' next time
########################################################################

           -------------------------------------------------
          |                 G F N 2 - x T B                 |
           -------------------------------------------------

        Reference                      10.1021/acs.jctc.8b01176
      * Hamiltonian:
        H0-scaling (s, p, d)           1.850000    2.230000    2.230000
        zeta-weighting                 0.500000
      * Dispersion:
        s8                             2.700000
        a1                             0.520000
        a2                             5.000000
        s9                             5.000000
      * Repulsion:
        kExp                           1.500000    1.000000
        rExp                           1.000000
      * Coulomb:
        alpha                          2.000000
        third order                    shell-resolved
        anisotropic                    true
        a3                             3.000000
        a5                             4.000000
        cn-shift                       1.200000
        cn-exp                         4.000000
        max-rad                        5.000000

q/qsh data taken from xtbrestart
CAMM data taken from xtbrestart

          ...................................................
          :                      SETUP                      :
          :.................................................:
          :  # basis functions                  42          :
          :  # atomic orbitals                  42          :
          :  # shells                           28          :
          :  # electrons                        42          :
          :  max. iterations                   250          :
          :  Hamiltonian                  GFN2-xTB          :
          :  restarted?                       true          :
          :  GBSA solvation                  false          :
          :  PC potential                    false          :
          :  electronic temp.          300.0000000     K    :
          :  accuracy                    1.0000000          :
          :  -> integral cutoff          0.2500000E+02      :
          :  -> integral neglect         0.1000000E-07      :
          :  -> SCF convergence          0.1000000E-05 Eh   :
          :  -> wf. convergence          0.1000000E-03 e    :
          :  Broyden damping             0.4000000          :
          ...................................................

 iter      E             dE          RMSdq      gap      omega  full diag
   1    -22.4715172 -0.224715E+02  0.228E+00   13.29       0.0  T
   2    -22.4732063 -0.168912E-02  0.135E+00   13.24       1.0  T
   3    -22.4737596 -0.553305E-03  0.136E-01   13.19       1.0  T
   4    -22.4737721 -0.124892E-04  0.762E-02   13.19       1.0  T
   5    -22.4737721  0.974696E-08  0.155E-02   13.19       1.4  T
   6    -22.4737738 -0.171530E-05  0.359E-03   13.19       6.1  T
   7    -22.4737738 -0.167804E-07  0.819E-04   13.19      26.7  T
   8    -22.4737738 -0.246462E-08  0.217E-04   13.19     100.6  T

   *** convergence criteria satisfied after 8 iterations ***

         #    Occupation            Energy/Eh            Energy/eV
      -------------------------------------------------------------
         1        2.0000           -0.6295987             -17.1323
       ...           ...                  ...                  ...
        15        2.0000           -0.4494555             -12.2303
        16        2.0000           -0.4425700             -12.0429
        17        2.0000           -0.4353453             -11.8463
        18        2.0000           -0.4288065             -11.6684
        19        2.0000           -0.4110573             -11.1854
        20        2.0000           -0.4072771             -11.0826
        21        2.0000           -0.4051566             -11.0249 (HOMO)
        22                          0.0794344               2.1615 (LUMO)
        23                          0.0863247               2.3490
        24                          0.0944525               2.5702
        25                          0.1109969               3.0204
        26                          0.1113044               3.0287
       ...                                ...                  ...
        42                          0.3071716               8.3586
      -------------------------------------------------------------
                  HL-Gap            0.4845910 Eh           13.1864 eV
             Fermi-level           -0.1628611 Eh           -4.4317 eV

 SCC (total)                   0 d,  0 h,  0 min,  0.010 sec
 SCC setup                      ...        0 min,  0.000 sec (  1.031%)
 Dispersion                     ...        0 min,  0.000 sec (  0.968%)
 classical contributions        ...        0 min,  0.000 sec (  0.389%)
 integral evaluation            ...        0 min,  0.001 sec (  5.401%)
 iterations                     ...        0 min,  0.007 sec ( 75.473%)
 molecular gradient             ...        0 min,  0.002 sec ( 15.438%)
 printout                       ...        0 min,  0.000 sec (  1.209%)

         :::::::::::::::::::::::::::::::::::::::::::::::::::::
         ::                     SUMMARY                     ::
         :::::::::::::::::::::::::::::::::::::::::::::::::::::
         :: total energy             -22.150599499729 Eh    ::
         :: gradient norm              0.018778033820 Eh/a0 ::
         :: HOMO-LUMO gap             13.186393213338 eV    ::
         ::.................................................::
         :: SCC energy               -22.473773797948 Eh    ::
         :: -> isotropic ES            0.003196422114 Eh    ::
         :: -> anisotropic ES          0.006606609982 Eh    ::
         :: -> anisotropic XC          0.012585962850 Eh    ::
         :: -> dispersion             -0.014574802784 Eh    ::
         :: repulsion energy           0.323105834945 Eh    ::
         :: add. restraining           0.000000000000 Eh    ::
         :: total charge               0.000000000000 e     ::
         :::::::::::::::::::::::::::::::::::::::::::::::::::::

           -------------------------------------------------
          |                Property Printout                |
           -------------------------------------------------

    * Orbital Energies and Occupations

         #    Occupation            Energy/Eh            Energy/eV
      -------------------------------------------------------------
         1        2.0000           -0.6295987             -17.1323
       ...           ...                  ...                  ...
         9        2.0000           -0.4991453             -13.5824
        10        2.0000           -0.4951983             -13.4750
        11        2.0000           -0.4901944             -13.3389
        12        2.0000           -0.4769688             -12.9790
        13        2.0000           -0.4737976             -12.8927
        14        2.0000           -0.4603761             -12.5275
        15        2.0000           -0.4494555             -12.2303
        16        2.0000           -0.4425700             -12.0429
        17        2.0000           -0.4353453             -11.8463
        18        2.0000           -0.4288065             -11.6684
        19        2.0000           -0.4110573             -11.1854
        20        2.0000           -0.4072771             -11.0826
        21        2.0000           -0.4051566             -11.0249 (HOMO)
        22                          0.0794344               2.1615 (LUMO)
        23                          0.0863247               2.3490
        24                          0.0944525               2.5702
        25                          0.1109969               3.0204
        26                          0.1113044               3.0287
        27                          0.1169871               3.1834
        28                          0.1280241               3.4837
        29                          0.1343454               3.6557
        30                          0.1738606               4.7310
        31                          0.1802494               4.9048
        32                          0.1824461               4.9646
       ...                                ...                  ...
        42                          0.3071716               8.3586
      -------------------------------------------------------------
                  HL-Gap            0.4845910 Eh           13.1864 eV
             Fermi-level           -0.1628611 Eh           -4.4317 eV

     #   Z          covCN         q      C6AA      α(0)
     1   6 C        3.851    -0.010    20.723     6.475
     2   6 C        3.806    -0.056    21.583     6.614
     3   6 C        3.806    -0.056    21.583     6.614
     4   6 C        3.803    -0.052    21.500     6.601
     5   6 C        3.803    -0.052    21.500     6.601
     6   6 C        3.804    -0.052    21.512     6.603
     7   6 C        3.752    -0.101    22.487     6.762
     8   1 H        0.924     0.022     2.700     2.569
     9   1 H        0.924     0.026     2.644     2.543
    10   1 H        0.924     0.027     2.628     2.535
    11   1 H        0.924     0.027     2.628     2.535
    12   1 H        0.924     0.026     2.644     2.543
    13   1 H        0.924     0.030     2.588     2.516
    14   1 H        0.924     0.023     2.683     2.562
    15   1 H        0.924     0.023     2.683     2.562
    16   1 H        0.924     0.030     2.587     2.516
    17   1 H        0.924     0.027     2.626     2.534
    18   1 H        0.924     0.023     2.688     2.564
    19   1 H        0.924     0.029     2.601     2.522
    20   1 H        0.924     0.036     2.500     2.473
    21   1 H        0.924     0.029     2.601     2.522

 Mol. C6AA /au·bohr⁶  :       3037.052774
 Mol. C8AA /au·bohr⁸  :      64178.896265
 Mol. α(0) /au        :         81.764614


Wiberg/Mayer (AO) data.
largest (>0.10) Wiberg bond orders for each atom

 ---------------------------------------------------------------------------
     #   Z sym  total        # sym  WBO       # sym  WBO       # sym  WBO
 ---------------------------------------------------------------------------
     1   6 C    3.996 --     7 C    1.010     3 C    0.996     2 C    0.996
                             8 H    0.969
     2   6 C    3.998 --     4 C    1.009     1 C    0.996    10 H    0.977
                             9 H    0.977
     3   6 C    3.998 --     5 C    1.009     1 C    0.996    11 H    0.977
                            12 H    0.977
     4   6 C    3.998 --     2 C    1.009     6 C    1.009    14 H    0.977
                            13 H    0.976
     5   6 C    3.998 --     3 C    1.009     6 C    1.009    15 H    0.977
                            16 H    0.976
     6   6 C    3.998 --     5 C    1.009     4 C    1.009    18 H    0.978
                            17 H    0.977
     7   6 C    3.997 --     1 C    1.010    19 H    0.987    21 H    0.986
                            20 H    0.983
     8   1 H    1.000 --     1 C    0.969
     9   1 H    0.999 --     2 C    0.977
    10   1 H    0.999 --     2 C    0.977
    11   1 H    0.999 --     3 C    0.977
    12   1 H    0.999 --     3 C    0.977
    13   1 H    0.999 --     4 C    0.976
    14   1 H    0.999 --     4 C    0.977
    15   1 H    0.999 --     5 C    0.977
    16   1 H    0.999 --     5 C    0.976
    17   1 H    0.999 --     6 C    0.977
    18   1 H    0.999 --     6 C    0.978
    19   1 H    0.999 --     7 C    0.987
    20   1 H    0.999 --     7 C    0.983
    21   1 H    0.999 --     7 C    0.986
 ---------------------------------------------------------------------------

Topologies differ in total number of bonds
Writing topology from bond orders to xtbtopo.mol

molecular dipole:
                 x           y           z       tot (Debye)
 q only:        0.005       0.000       0.010
   full:        0.005       0.000       0.007       0.022
molecular quadrupole (traceless):
                xx          xy          yy          xz          yz          zz
 q only:       -0.118      -0.001       0.025      -0.005       0.003       0.093
  q+dip:       -0.474       0.015      -0.341       0.380       0.047       0.815
   full:       -0.272       0.009      -0.170       0.218       0.025       0.443


           -------------------------------------------------
          | TOTAL ENERGY              -22.150599499729 Eh   |
          | GRADIENT NORM               0.018778033820 Eh/α |
          | HOMO-LUMO GAP              13.186393213338 eV   |
           -------------------------------------------------

------------------------------------------------------------------------
 * finished run on 2021/08/09 at 17:30:49.931     
------------------------------------------------------------------------
 total:
 * wall-time:     0 d,  0 h,  0 min,  0.018 sec
 *  cpu-time:     0 d,  0 h,  0 min,  0.064 sec
 * ratio c/w:     3.532 speedup
 SCF:
 * wall-time:     0 d,  0 h,  0 min,  0.010 sec
 *  cpu-time:     0 d,  0 h,  0 min,  0.033 sec
 * ratio c/w:     3.336 speedup

