      -----------------------------------------------------------      
     |                   =====================                   |     
     |                           x T B                           |     
     |                   =====================                   |     
     |                         S. Grimme                         |     
     |          Mulliken Center for Theoretical Chemistry        |     
     |                    University of Bonn                     |     
      -----------------------------------------------------------      

   * xtb version 6.4.1-2.fc34.fc34 compiled by Fedora project on Wed Jun 30 15:53:26 UTC 2021

   xtb is free software: you can redistribute it and/or modify it under
   the terms of the GNU Lesser General Public License as published by
   the Free Software Foundation, either version 3 of the License, or
   (at your option) any later version.
   
   xtb is distributed in the hope that it will be useful,
   but WITHOUT ANY WARRANTY; without even the implied warranty of
   MERCHANTABILITY or FITNESS FOR A PARTICULAR PURPOSE.  See the
   GNU Lesser General Public License for more details.
   
   Cite this work as:
   * C. Bannwarth, E. Caldeweyher, S. Ehlert, A. Hansen, P. Pracht,
     J. Seibert, S. Spicher, S. Grimme, WIREs Comput. Mol. Sci., 2020, 11,
     e01493. DOI: 10.1002/wcms.1493
   
   for GFN2-xTB:
   * C. Bannwarth, S. Ehlert and S. Grimme., J. Chem. Theory Comput., 2019,
     15, 1652-1671. DOI: 10.1021/acs.jctc.8b01176
   for GFN1-xTB:
   * S. Grimme, C. Bannwarth, P. Shushkov, J. Chem. Theory Comput., 2017,
     13, 1989-2009. DOI: 10.1021/acs.jctc.7b00118
   for GFN0-xTB:
   * P. Pracht, E. Caldeweyher, S. Ehlert, S. Grimme, ChemRxiv, 2019, preprint.
     DOI: 10.26434/chemrxiv.8326202.v1
   for GFN-FF:
   * S. Spicher and S. Grimme, Angew. Chem. Int. Ed., 2020, 59, 15665-15673.
     DOI: 10.1002/anie.202004239
   
   for DFT-D4:
   * E. Caldeweyher, C. Bannwarth and S. Grimme, J. Chem. Phys., 2017,
     147, 034112. DOI: 10.1063/1.4993215
   * E. Caldeweyher, S. Ehlert, A. Hansen, H. Neugebauer, S. Spicher,
     C. Bannwarth and S. Grimme, J. Chem. Phys., 2019, 150, 154122.
     DOI: 10.1063/1.5090222
   * E. Caldeweyher, J.-M. Mewes, S. Ehlert and S. Grimme, Phys. Chem. Chem. Phys.
     2020, 22, 8499-8512. DOI: 10.1039/D0CP00502A
   
   for sTDA-xTB:
   * S. Grimme and C. Bannwarth, J. Chem. Phys., 2016, 145, 054103.
     DOI: 10.1063/1.4959605
   
   in the mass-spec context:
   * V. Asgeirsson, C. Bauer and S. Grimme, Chem. Sci., 2017, 8, 4879.
     DOI: 10.1039/c7sc00601b
   * J. Koopman and S. Grimme, ACS Omega 2019, 4, 12, 15120-15133.
     DOI: 10.1021/acsomega.9b02011
   
   for metadynamics refer to:
   * S. Grimme, J. Chem. Theory Comput., 2019, 155, 2847-2862
     DOI: 10.1021/acs.jctc.9b00143
   
   for SPH calculations refer to:
   * S. Spicher and S. Grimme, J. Chem. Theory Comput., 2021, 17, 1701-1714
     DOI: 10.1021/acs.jctc.0c01306
   
   with help from (in alphabetical order)
   P. Atkinson, C. Bannwarth, F. Bohle, G. Brandenburg, E. Caldeweyher
   M. Checinski, S. Dohm, S. Ehlert, S. Ehrlich, I. Gerasimov, J. Koopman
   C. Lavigne, S. Lehtola, F. März, M. Müller, F. Musil, H. Neugebauer
   J. Pisarek, C. Plett, P. Pracht, J. Seibert, P. Shushkov, S. Spicher
   M. Stahn, M. Steiner, T. Strunk, J. Stückrath, T. Rose, and J. Unsleber
   
 * started run on 2021/08/09 at 17:30:49.531     

           -------------------------------------------------
          |                Calculation Setup                |
           -------------------------------------------------

          program call               : xtb -gfn 0 conformer4.xyz
          hostname                   : thinkpad
          coordinate file            : conformer4.xyz
          omp threads                :                     4
          number of atoms            :                    21
          number of electrons        :                    42
          charge                     :                     0
          spin                       :                   0.0
          first test random number   :      0.60427773429666

   ID    Z sym.   atoms
    1    6 C      1-7
    2    1 H      8-21
########################################################################
[WARNING] Please study the warnings concerning your input carefully
-1- prog_main_parseArguments: the use of '-gfn' is discouraged, please use '--gfn' next time
########################################################################

           -------------------------------------------------
          |                 G F N 0 - x T B                 |
           -------------------------------------------------

        Reference                      10.26434/chemrxiv.8326202.v1
      * Hamiltonian:
        H0-scaling (s, p, d)           2.000000    2.486800    2.270000
        zeta-weighting                 1.000000
      * Dispersion:
        s8                             2.850000
        a1                             0.800000
        a2                             4.600000
        s9                             0.000000
      * Repulsion:
        kExp                           1.500000
        rExp                           1.000000
      * Coulomb:
        alpha                          0.000000
        third order                    atomic
        anisotropic                    false
      * Polar bond correction:
        rad-shift                      0.053700
        strength                      -0.012900
        en-exp                         3.484700
        en-scale                       0.509700


          ...................................................
          :                      SETUP                      :
          :.................................................:
          :  # basis functions                  56          :
          :  # atomic orbitals                  56          :
          :  # shells                           42          :
          :  # electrons                        42          :
          :  electronic temp.          300.0000000     K    :
          :  accuracy                    1.0000000          :
          :  -> integral cutoff          0.2500000E+02      :
          :  -> integral neglect         0.1000000E-07      :
          ...................................................
  Checking positiv definite overlap ...  done.


         #    Occupation            Energy/Eh            Energy/eV
      -------------------------------------------------------------
         1        2.0000           -0.6389713             -17.3873
       ...           ...                  ...                  ...
        15        2.0000           -0.5034594             -13.6998
        16        2.0000           -0.4991241             -13.5819
        17        2.0000           -0.4903712             -13.3437
        18        2.0000           -0.4901369             -13.3373
        19        2.0000           -0.4714008             -12.8275
        20        2.0000           -0.4615303             -12.5589
        21        2.0000           -0.4614797             -12.5575 (HOMO)
        22                         -0.1597767              -4.3477 (LUMO)
        23                         -0.1448518              -3.9416
        24                         -0.1420121              -3.8643
        25                         -0.1315594              -3.5799
        26                         -0.1280671              -3.4849
       ...                                ...                  ...
        56                          0.4399947              11.9729
      -------------------------------------------------------------
                  HL-Gap            0.3017030 Eh            8.2098 eV
             Fermi-level            0.0000000 Eh            0.0000 eV

 EHT (total)                   0 d,  0 h,  0 min,  0.003 sec
 EHT setup                      ...        0 min,  0.000 sec (  3.090%)
 Coordination number            ...        0 min,  0.000 sec (  1.667%)
 EEQ model density              ...        0 min,  0.000 sec (  4.170%)
 D4 Dispersion                  ...        0 min,  0.000 sec (  9.450%)
 Integral evaluation            ...        0 min,  0.001 sec ( 17.825%)
 Cholesky factorization         ...        0 min,  0.000 sec (  1.409%)
 Zeroth order Hamiltonian       ...        0 min,  0.001 sec ( 32.210%)
 Gradient calculation           ...        0 min,  0.001 sec ( 26.951%)

         :::::::::::::::::::::::::::::::::::::::::::::::::::::
         ::                     SUMMARY                     ::
         :::::::::::::::::::::::::::::::::::::::::::::::::::::
         :: total energy             -22.600179736520 Eh    ::
         :: gradient norm              0.022269481293 Eh/a0 ::
         :: HOMO-LUMO gap              8.209755798393 eV    ::
         ::.................................................::
         :: H0 energy                -22.921916397993 Eh    ::
         :: repulsion energy           0.345708229503 Eh    ::
         :: electrostat energy        -0.016511769350 Eh    ::
         :: -> Gsolv                   0.000000000000 Eh    ::
         ::    -> Gsasa                0.000000000000 Eh    ::
         ::    -> Gshift               0.000000000000 Eh    ::
         :: dispersion energy         -0.007459798679 Eh    ::
         :: short-range corr.          0.000000000000 Eh    ::
         :: add. restraining           0.000000000000 Eh    ::
         :: total charge              -0.000000000000 e     ::
         :::::::::::::::::::::::::::::::::::::::::::::::::::::

           -------------------------------------------------
          |                Property Printout                |
           -------------------------------------------------

    * Orbital Energies and Occupations

         #    Occupation            Energy/Eh            Energy/eV
      -------------------------------------------------------------
         1        2.0000           -0.6389713             -17.3873
       ...           ...                  ...                  ...
         9        2.0000           -0.5528193             -15.0430
        10        2.0000           -0.5509062             -14.9909
        11        2.0000           -0.5412427             -14.7280
        12        2.0000           -0.5298322             -14.4175
        13        2.0000           -0.5273947             -14.3511
        14        2.0000           -0.5140235             -13.9873
        15        2.0000           -0.5034594             -13.6998
        16        2.0000           -0.4991241             -13.5819
        17        2.0000           -0.4903712             -13.3437
        18        2.0000           -0.4901369             -13.3373
        19        2.0000           -0.4714008             -12.8275
        20        2.0000           -0.4615303             -12.5589
        21        2.0000           -0.4614797             -12.5575 (HOMO)
        22                         -0.1597767              -4.3477 (LUMO)
        23                         -0.1448518              -3.9416
        24                         -0.1420121              -3.8643
        25                         -0.1315594              -3.5799
        26                         -0.1280671              -3.4849
        27                         -0.1170534              -3.1852
        28                         -0.1062248              -2.8905
        29                         -0.1027694              -2.7965
        30                         -0.1019085              -2.7731
        31                         -0.1001360              -2.7248
        32                         -0.0744281              -2.0253
       ...                                ...                  ...
        56                          0.4399947              11.9729
      -------------------------------------------------------------
                  HL-Gap            0.3017030 Eh            8.2098 eV
             Fermi-level            0.0000000 Eh            0.0000 eV

     #   Z          covCN         q      C6AA      α(0)
     1   6 C        3.851     0.069    21.738     6.713
     2   6 C        3.806    -0.157    26.328     7.394
     3   6 C        3.806    -0.157    26.329     7.394
     4   6 C        3.803    -0.123    25.580     7.289
     5   6 C        3.803    -0.123    25.580     7.288
     6   6 C        3.804    -0.136    25.851     7.327
     7   6 C        3.752    -0.385    32.300     8.202
     8   1 H        0.924     0.032     2.565     2.505
     9   1 H        0.924     0.064     2.148     2.292
    10   1 H        0.924     0.067     2.121     2.277
    11   1 H        0.924     0.067     2.120     2.277
    12   1 H        0.924     0.064     2.148     2.292
    13   1 H        0.924     0.071     2.073     2.252
    14   1 H        0.924     0.058     2.228     2.334
    15   1 H        0.924     0.058     2.228     2.334
    16   1 H        0.924     0.071     2.073     2.252
    17   1 H        0.924     0.072     2.068     2.249
    18   1 H        0.924     0.059     2.217     2.328
    19   1 H        0.924     0.107     1.726     2.055
    20   1 H        0.924     0.118     1.633     1.998
    21   1 H        0.924     0.107     1.726     2.055

 Mol. C6AA /au·bohr⁶  :       3123.350877
 Mol. C8AA /au·bohr⁸  :      68827.450958
 Mol. α(0) /au        :         83.107456


Wiberg/Mayer (AO) data.
largest (>0.10) Wiberg bond orders for each atom

 ---------------------------------------------------------------------------
     #   Z sym  total        # sym  WBO       # sym  WBO       # sym  WBO
 ---------------------------------------------------------------------------
     1   6 C    3.992 --     7 C    1.016     3 C    1.000     2 C    1.000
                             8 H    0.977
     2   6 C    3.988 --     4 C    1.011     1 C    1.000     9 H    0.976
                            10 H    0.976
     3   6 C    3.988 --     5 C    1.011     1 C    1.000    12 H    0.976
                            11 H    0.976
     4   6 C    3.989 --     6 C    1.012     2 C    1.011    14 H    0.978
                            13 H    0.974
     5   6 C    3.989 --     6 C    1.012     3 C    1.011    15 H    0.978
                            16 H    0.974
     6   6 C    3.989 --     5 C    1.012     4 C    1.012    18 H    0.978
                            17 H    0.975
     7   6 C    3.979 --     1 C    1.016    19 H    0.981    21 H    0.981
                            20 H    0.977
     8   1 H    0.979 --     1 C    0.977
     9   1 H    0.979 --     2 C    0.976
    10   1 H    0.978 --     2 C    0.976
    11   1 H    0.978 --     3 C    0.976
    12   1 H    0.979 --     3 C    0.976
    13   1 H    0.978 --     4 C    0.974
    14   1 H    0.982 --     4 C    0.978
    15   1 H    0.982 --     5 C    0.978
    16   1 H    0.978 --     5 C    0.974
    17   1 H    0.978 --     6 C    0.975
    18   1 H    0.982 --     6 C    0.978
    19   1 H    0.980 --     7 C    0.981
    20   1 H    0.978 --     7 C    0.977
    21   1 H    0.980 --     7 C    0.981
 ---------------------------------------------------------------------------

Topologies differ in total number of bonds
Writing topology from bond orders to xtbtopo.mol

 dipole moment from electron density (au)
     X       Y       Z   
  -0.0009   0.0000   0.0000  total (Debye):    0.002


           -------------------------------------------------
          | TOTAL ENERGY              -22.600179736520 Eh   |
          | GRADIENT NORM               0.022269481293 Eh/α |
          | HOMO-LUMO GAP               8.209755798393 eV   |
           -------------------------------------------------

------------------------------------------------------------------------
 * finished run on 2021/08/09 at 17:30:49.545     
------------------------------------------------------------------------
 total:
 * wall-time:     0 d,  0 h,  0 min,  0.014 sec
 *  cpu-time:     0 d,  0 h,  0 min,  0.052 sec
 * ratio c/w:     3.710 speedup
 SCF:
 * wall-time:     0 d,  0 h,  0 min,  0.003 sec
 *  cpu-time:     0 d,  0 h,  0 min,  0.011 sec
 * ratio c/w:     3.599 speedup

