      -----------------------------------------------------------      
     |                   =====================                   |     
     |                           x T B                           |     
     |                   =====================                   |     
     |                         S. Grimme                         |     
     |          Mulliken Center for Theoretical Chemistry        |     
     |                    University of Bonn                     |     
      -----------------------------------------------------------      

   * xtb version 6.4.1-2.fc34.fc34 compiled by Fedora project on Wed Jun 30 15:53:26 UTC 2021

   xtb is free software: you can redistribute it and/or modify it under
   the terms of the GNU Lesser General Public License as published by
   the Free Software Foundation, either version 3 of the License, or
   (at your option) any later version.
   
   xtb is distributed in the hope that it will be useful,
   but WITHOUT ANY WARRANTY; without even the implied warranty of
   MERCHANTABILITY or FITNESS FOR A PARTICULAR PURPOSE.  See the
   GNU Lesser General Public License for more details.
   
   Cite this work as:
   * C. Bannwarth, E. Caldeweyher, S. Ehlert, A. Hansen, P. Pracht,
     J. Seibert, S. Spicher, S. Grimme, WIREs Comput. Mol. Sci., 2020, 11,
     e01493. DOI: 10.1002/wcms.1493
   
   for GFN2-xTB:
   * C. Bannwarth, S. Ehlert and S. Grimme., J. Chem. Theory Comput., 2019,
     15, 1652-1671. DOI: 10.1021/acs.jctc.8b01176
   for GFN1-xTB:
   * S. Grimme, C. Bannwarth, P. Shushkov, J. Chem. Theory Comput., 2017,
     13, 1989-2009. DOI: 10.1021/acs.jctc.7b00118
   for GFN0-xTB:
   * P. Pracht, E. Caldeweyher, S. Ehlert, S. Grimme, ChemRxiv, 2019, preprint.
     DOI: 10.26434/chemrxiv.8326202.v1
   for GFN-FF:
   * S. Spicher and S. Grimme, Angew. Chem. Int. Ed., 2020, 59, 15665-15673.
     DOI: 10.1002/anie.202004239
   
   for DFT-D4:
   * E. Caldeweyher, C. Bannwarth and S. Grimme, J. Chem. Phys., 2017,
     147, 034112. DOI: 10.1063/1.4993215
   * E. Caldeweyher, S. Ehlert, A. Hansen, H. Neugebauer, S. Spicher,
     C. Bannwarth and S. Grimme, J. Chem. Phys., 2019, 150, 154122.
     DOI: 10.1063/1.5090222
   * E. Caldeweyher, J.-M. Mewes, S. Ehlert and S. Grimme, Phys. Chem. Chem. Phys.
     2020, 22, 8499-8512. DOI: 10.1039/D0CP00502A
   
   for sTDA-xTB:
   * S. Grimme and C. Bannwarth, J. Chem. Phys., 2016, 145, 054103.
     DOI: 10.1063/1.4959605
   
   in the mass-spec context:
   * V. Asgeirsson, C. Bauer and S. Grimme, Chem. Sci., 2017, 8, 4879.
     DOI: 10.1039/c7sc00601b
   * J. Koopman and S. Grimme, ACS Omega 2019, 4, 12, 15120-15133.
     DOI: 10.1021/acsomega.9b02011
   
   for metadynamics refer to:
   * S. Grimme, J. Chem. Theory Comput., 2019, 155, 2847-2862
     DOI: 10.1021/acs.jctc.9b00143
   
   for SPH calculations refer to:
   * S. Spicher and S. Grimme, J. Chem. Theory Comput., 2021, 17, 1701-1714
     DOI: 10.1021/acs.jctc.0c01306
   
   with help from (in alphabetical order)
   P. Atkinson, C. Bannwarth, F. Bohle, G. Brandenburg, E. Caldeweyher
   M. Checinski, S. Dohm, S. Ehlert, S. Ehrlich, I. Gerasimov, J. Koopman
   C. Lavigne, S. Lehtola, F. März, M. Müller, F. Musil, H. Neugebauer
   J. Pisarek, C. Plett, P. Pracht, J. Seibert, P. Shushkov, S. Spicher
   M. Stahn, M. Steiner, T. Strunk, J. Stückrath, T. Rose, and J. Unsleber
   
 * started run on 2021/08/09 at 17:30:49.830     

           -------------------------------------------------
          |                Calculation Setup                |
           -------------------------------------------------

          program call               : xtb -gfn 2 conformer1.xyz
          hostname                   : thinkpad
          coordinate file            : conformer1.xyz
          omp threads                :                     4
          number of atoms            :                    21
          number of electrons        :                    42
          charge                     :                     0
          spin                       :                   0.0
          first test random number   :      0.30822962447704

   ID    Z sym.   atoms
    1    6 C      1-7
    2    1 H      8-21
########################################################################
[WARNING] Please study the warnings concerning your input carefully
-1- prog_main_parseArguments: the use of '-gfn' is discouraged, please use '--gfn' next time
########################################################################

           -------------------------------------------------
          |                 G F N 2 - x T B                 |
           -------------------------------------------------

        Reference                      10.1021/acs.jctc.8b01176
      * Hamiltonian:
        H0-scaling (s, p, d)           1.850000    2.230000    2.230000
        zeta-weighting                 0.500000
      * Dispersion:
        s8                             2.700000
        a1                             0.520000
        a2                             5.000000
        s9                             5.000000
      * Repulsion:
        kExp                           1.500000    1.000000
        rExp                           1.000000
      * Coulomb:
        alpha                          2.000000
        third order                    shell-resolved
        anisotropic                    true
        a3                             3.000000
        a5                             4.000000
        cn-shift                       1.200000
        cn-exp                         4.000000
        max-rad                        5.000000


          ...................................................
          :                      SETUP                      :
          :.................................................:
          :  # basis functions                  42          :
          :  # atomic orbitals                  42          :
          :  # shells                           28          :
          :  # electrons                        42          :
          :  max. iterations                   250          :
          :  Hamiltonian                  GFN2-xTB          :
          :  restarted?                      false          :
          :  GBSA solvation                  false          :
          :  PC potential                    false          :
          :  electronic temp.          300.0000000     K    :
          :  accuracy                    1.0000000          :
          :  -> integral cutoff          0.2500000E+02      :
          :  -> integral neglect         0.1000000E-07      :
          :  -> SCF convergence          0.1000000E-05 Eh   :
          :  -> wf. convergence          0.1000000E-03 e    :
          :  Broyden damping             0.4000000          :
          ...................................................

 iter      E             dE          RMSdq      gap      omega  full diag
   1    -22.4166772 -0.224167E+02  0.250E+00   13.00       0.0  T
   2    -22.4754675 -0.587903E-01  0.142E+00   13.00       1.0  T
   3    -22.4760976 -0.630137E-03  0.759E-01   12.97       1.0  T
   4    -22.4762426 -0.144964E-03  0.106E-01   12.96       1.0  T
   5    -22.4762896 -0.469757E-04  0.536E-02   12.95       1.0  T
   6    -22.4762901 -0.567308E-06  0.777E-03   12.95       2.8  T
   7    -22.4762904 -0.285823E-06  0.212E-03   12.95      10.3  T
   8    -22.4762904 -0.662063E-08  0.317E-04   12.95      68.8  T
   9    -22.4762904 -0.392031E-09  0.104E-04   12.95     209.3  T

   *** convergence criteria satisfied after 9 iterations ***

         #    Occupation            Energy/Eh            Energy/eV
      -------------------------------------------------------------
         1        2.0000           -0.6301555             -17.1474
       ...           ...                  ...                  ...
        15        2.0000           -0.4527348             -12.3195
        16        2.0000           -0.4461575             -12.1406
        17        2.0000           -0.4313621             -11.7380
        18        2.0000           -0.4262140             -11.5979
        19        2.0000           -0.4140192             -11.2660
        20        2.0000           -0.4095672             -11.1449
        21        2.0000           -0.4070510             -11.0764 (HOMO)
        22                          0.0689393               1.8759 (LUMO)
        23                          0.0886890               2.4134
        24                          0.0952024               2.5906
        25                          0.1125569               3.0628
        26                          0.1138352               3.0976
       ...                                ...                  ...
        42                          0.3043902               8.2829
      -------------------------------------------------------------
                  HL-Gap            0.4759903 Eh           12.9524 eV
             Fermi-level           -0.1690558 Eh           -4.6002 eV

 SCC (total)                   0 d,  0 h,  0 min,  0.009 sec
 SCC setup                      ...        0 min,  0.000 sec (  1.052%)
 Dispersion                     ...        0 min,  0.000 sec (  0.890%)
 classical contributions        ...        0 min,  0.000 sec (  0.305%)
 integral evaluation            ...        0 min,  0.000 sec (  5.185%)
 iterations                     ...        0 min,  0.007 sec ( 75.487%)
 molecular gradient             ...        0 min,  0.001 sec ( 15.745%)
 printout                       ...        0 min,  0.000 sec (  1.264%)

         :::::::::::::::::::::::::::::::::::::::::::::::::::::
         ::                     SUMMARY                     ::
         :::::::::::::::::::::::::::::::::::::::::::::::::::::
         :: total energy             -22.152749200181 Eh    ::
         :: gradient norm              0.025781875299 Eh/a0 ::
         :: HOMO-LUMO gap             12.952355951941 eV    ::
         ::.................................................::
         :: SCC energy               -22.476290427292 Eh    ::
         :: -> isotropic ES            0.003239712082 Eh    ::
         :: -> anisotropic ES          0.006423908837 Eh    ::
         :: -> anisotropic XC          0.012613699947 Eh    ::
         :: -> dispersion             -0.014076834065 Eh    ::
         :: repulsion energy           0.323481137997 Eh    ::
         :: add. restraining           0.000000000000 Eh    ::
         :: total charge               0.000000000000 e     ::
         :::::::::::::::::::::::::::::::::::::::::::::::::::::

           -------------------------------------------------
          |                Property Printout                |
           -------------------------------------------------

    * Orbital Energies and Occupations

         #    Occupation            Energy/Eh            Energy/eV
      -------------------------------------------------------------
         1        2.0000           -0.6301555             -17.1474
       ...           ...                  ...                  ...
         9        2.0000           -0.5014309             -13.6446
        10        2.0000           -0.4956129             -13.4863
        11        2.0000           -0.4901156             -13.3367
        12        2.0000           -0.4836145             -13.1598
        13        2.0000           -0.4640598             -12.6277
        14        2.0000           -0.4610690             -12.5463
        15        2.0000           -0.4527348             -12.3195
        16        2.0000           -0.4461575             -12.1406
        17        2.0000           -0.4313621             -11.7380
        18        2.0000           -0.4262140             -11.5979
        19        2.0000           -0.4140192             -11.2660
        20        2.0000           -0.4095672             -11.1449
        21        2.0000           -0.4070510             -11.0764 (HOMO)
        22                          0.0689393               1.8759 (LUMO)
        23                          0.0886890               2.4134
        24                          0.0952024               2.5906
        25                          0.1125569               3.0628
        26                          0.1138352               3.0976
        27                          0.1153323               3.1384
        28                          0.1342210               3.6523
        29                          0.1637730               4.4565
        30                          0.1747128               4.7542
        31                          0.1827089               4.9718
        32                          0.1933279               5.2607
       ...                                ...                  ...
        42                          0.3043902               8.2829
      -------------------------------------------------------------
                  HL-Gap            0.4759903 Eh           12.9524 eV
             Fermi-level           -0.1690558 Eh           -4.6002 eV

     #   Z          covCN         q      C6AA      α(0)
     1   6 C        3.853    -0.012    20.748     6.478
     2   6 C        3.807    -0.057    21.598     6.616
     3   6 C        3.807    -0.057    21.598     6.616
     4   6 C        3.804    -0.052    21.513     6.603
     5   6 C        3.804    -0.052    21.513     6.603
     6   6 C        3.804    -0.053    21.527     6.605
     7   6 C        3.753    -0.103    22.520     6.767
     8   1 H        0.923     0.026     2.639     2.540
     9   1 H        0.923     0.029     2.598     2.521
    10   1 H        0.924     0.025     2.660     2.551
    11   1 H        0.924     0.025     2.660     2.551
    12   1 H        0.923     0.029     2.598     2.521
    13   1 H        0.924     0.025     2.657     2.549
    14   1 H        0.924     0.027     2.626     2.534
    15   1 H        0.924     0.027     2.626     2.534
    16   1 H        0.924     0.025     2.657     2.549
    17   1 H        0.924     0.024     2.669     2.555
    18   1 H        0.924     0.029     2.602     2.523
    19   1 H        0.924     0.032     2.564     2.504
    20   1 H        0.924     0.031     2.572     2.508
    21   1 H        0.924     0.032     2.564     2.504

 Mol. C6AA /au·bohr⁶  :       3034.881246
 Mol. C8AA /au·bohr⁸  :      64157.529526
 Mol. α(0) /au        :         81.730595


Wiberg/Mayer (AO) data.
largest (>0.10) Wiberg bond orders for each atom

 ---------------------------------------------------------------------------
     #   Z sym  total        # sym  WBO       # sym  WBO       # sym  WBO
 ---------------------------------------------------------------------------
     1   6 C    3.996 --     7 C    1.010     3 C    0.998     2 C    0.998
                             8 H    0.967
     2   6 C    3.998 --     4 C    1.009     1 C    0.998    10 H    0.977
                             9 H    0.976
     3   6 C    3.998 --     5 C    1.009     1 C    0.998    11 H    0.977
                            12 H    0.976
     4   6 C    3.998 --     6 C    1.009     2 C    1.009    14 H    0.977
                            13 H    0.977
     5   6 C    3.998 --     6 C    1.009     3 C    1.009    15 H    0.977
                            16 H    0.977
     6   6 C    3.998 --     4 C    1.009     5 C    1.009    17 H    0.977
                            18 H    0.977
     7   6 C    3.996 --     1 C    1.010    20 H    0.986    21 H    0.986
                            19 H    0.986
     8   1 H    0.999 --     1 C    0.967
     9   1 H    0.999 --     2 C    0.976
    10   1 H    0.999 --     2 C    0.977
    11   1 H    0.999 --     3 C    0.977
    12   1 H    0.999 --     3 C    0.976
    13   1 H    0.999 --     4 C    0.977
    14   1 H    0.999 --     4 C    0.977
    15   1 H    0.999 --     5 C    0.977
    16   1 H    0.999 --     5 C    0.977
    17   1 H    0.999 --     6 C    0.977
    18   1 H    0.999 --     6 C    0.977
    19   1 H    0.999 --     7 C    0.986
    20   1 H    0.999 --     7 C    0.986
    21   1 H    0.999 --     7 C    0.986
 ---------------------------------------------------------------------------

Topologies differ in total number of bonds
Writing topology from bond orders to xtbtopo.mol

molecular dipole:
                 x           y           z       tot (Debye)
 q only:        0.003       0.000       0.006
   full:        0.008       0.000       0.009       0.030
molecular quadrupole (traceless):
                xx          xy          yy          xz          yz          zz
 q only:        0.164       0.000      -0.011       0.012      -0.000      -0.153
  q+dip:       -1.072      -0.000      -0.390      -0.096       0.005       1.461
   full:       -0.461      -0.000      -0.208      -0.032       0.002       0.669


           -------------------------------------------------
          | TOTAL ENERGY              -22.152749200181 Eh   |
          | GRADIENT NORM               0.025781875299 Eh/α |
          | HOMO-LUMO GAP              12.952355951941 eV   |
           -------------------------------------------------
########################################################################
[WARNING] Runtime exception occurred
-2- restart_readRestart: Dimension missmatch in restart file.
-1- restart_readRestart: Version number missmatch in restart file.
########################################################################

------------------------------------------------------------------------
 * finished run on 2021/08/09 at 17:30:49.848     
------------------------------------------------------------------------
 total:
 * wall-time:     0 d,  0 h,  0 min,  0.018 sec
 *  cpu-time:     0 d,  0 h,  0 min,  0.060 sec
 * ratio c/w:     3.419 speedup
 SCF:
 * wall-time:     0 d,  0 h,  0 min,  0.010 sec
 *  cpu-time:     0 d,  0 h,  0 min,  0.033 sec
 * ratio c/w:     3.428 speedup

