
    -----------------------------------------------------------------------
          Psi4: An Open-Source Ab Initio Electronic Structure Package
                               Psi4 1.3.2 release

                         Git: Rev {} zzzzzzz 


    R. M. Parrish, L. A. Burns, D. G. A. Smith, A. C. Simmonett,
    A. E. DePrince III, E. G. Hohenstein, U. Bozkaya, A. Yu. Sokolov,
    R. Di Remigio, R. M. Richard, J. F. Gonthier, A. M. James,
    H. R. McAlexander, A. Kumar, M. Saitow, X. Wang, B. P. Pritchard,
    P. Verma, H. F. Schaefer III, K. Patkowski, R. A. King, E. F. Valeev,
    F. A. Evangelista, J. M. Turney, T. D. Crawford, and C. D. Sherrill,
    J. Chem. Theory Comput. 13(7) pp 3185--3197 (2017).
    (doi: 10.1021/acs.jctc.7b00174)


                         Additional Contributions by
    P. Kraus, H. Kruse, M. H. Lechner, M. C. Schieber, R. A. Shaw,
    A. Alenaizan, R. Galvelis, Z. L. Glick, S. Lehtola, and J. P. Misiewicz

    -----------------------------------------------------------------------


    Psi4 started on: Tuesday, 18 January 2022 09:30PM

    Process ID: 818251
    Host:       lenovo
    PSIDATADIR: /usr/share/psi4
    Memory:     500.0 MiB
    Threads:    4
    
  ==> Input File <==

--------------------------------------------------------------------------
memory 8 gb

molecule {
0 1
 C         -1.0824003554        0.1037113634       -0.4416245879
 C         -0.2690168865        1.2616445818        0.1555739249
 C         -0.2028576263       -1.1495458821       -0.5952662554
 C          1.1787509779        1.2050408820       -0.3184337264
 C          0.8927738356       -1.1856973820        0.4640569944
 C          1.8811406910       -0.0328156030        0.2531980644
 C         -2.3089844765       -0.1821695072        0.4219031429
 H         -1.4314670859        0.4011919545       -1.4367968341
 H         -0.2881228954        1.2042445516        1.2456938264
 H         -0.7224703725        2.2129157777       -0.1298334671
 H          0.2650876061       -1.1588771616       -1.5816140359
 H         -0.8252082976       -2.0432753572       -0.5208571895
 H          1.7113397683        2.1076299367       -0.0130967443
 H          1.1898921172        1.1728446051       -1.4097887724
 H          1.4226395685       -2.1392508283        0.4235571312
 H          0.4353222838       -1.1105025076        1.4519549553
 H          2.6736964391       -0.3444087329       -0.4299239995
 H          2.3519625658        0.2145767642        1.2066888331
 H         -2.8938679820        0.7244917731        0.5629970227
 H         -2.9447687121       -0.9301393533       -0.0473187728
 H         -2.0094754093       -0.5517859885        1.4004095166
}

set basis def2-tzvp
optimize('pbe0')
--------------------------------------------------------------------------

  Memory set to   7.451 GiB by Python driver.
gradient() will perform analytic gradient computation.

*** tstart() called on lenovo
*** at Tue Jan 18 21:30:22 2022

   => Loading Basis Set <=

    Name: DEF2-TZVP
    Role: ORBITAL
    Keyword: BASIS
    atoms 1-7  entry C          line   123 file /usr/share/psi4/basis/def2-tzvp.gbs 
    atoms 8-21 entry H          line    15 file /usr/share/psi4/basis/def2-tzvp.gbs 


         ---------------------------------------------------------
                                   SCF
               by Justin Turney, Rob Parrish, Andy Simmonett
                          and Daniel G. A. Smith
                              RKS Reference
                        4 Threads,   7629 MiB Core
         ---------------------------------------------------------

  ==> Geometry <==

    Molecular point group: c1
    Full point group: C1

    Geometry (in Angstrom), charge = 0, multiplicity = 1:

       Center              X                  Y                   Z               Mass       
    ------------   -----------------  -----------------  -----------------  -----------------
         C           -1.082391145349     0.103713441033    -0.441630829749    12.000000000000
         C           -0.269007676449     1.261646659433     0.155567683051    12.000000000000
         C           -0.202848416249    -1.149543804467    -0.595272497249    12.000000000000
         C            1.178760187951     1.205042959633    -0.318439968249    12.000000000000
         C            0.892783045651    -1.185695304367     0.464050752551    12.000000000000
         C            1.881149901051    -0.032813525367     0.253191822551    12.000000000000
         C           -2.308975266449    -0.182167429567     0.421896901051    12.000000000000
         H           -1.431457875849     0.401194032133    -1.436803075949     1.007825032230
         H           -0.288113685349     1.204246629233     1.245687584551     1.007825032230
         H           -0.722461162449     2.212917855333    -0.129839708949     1.007825032230
         H            0.265096816151    -1.158875083967    -1.581620277749     1.007825032230
         H           -0.825199087549    -2.043273279567    -0.520863431349     1.007825032230
         H            1.711348978351     2.107632014333    -0.013102986149     1.007825032230
         H            1.189901327251     1.172846682733    -1.409795014249     1.007825032230
         H            1.422648778551    -2.139248750667     0.423550889351     1.007825032230
         H            0.435331493851    -1.110500429967     1.451948713451     1.007825032230
         H            2.673705649151    -0.344406655267    -0.429930241349     1.007825032230
         H            2.351971775851     0.214578841833     1.206682591251     1.007825032230
         H           -2.893858771949     0.724493850733     0.562990780851     1.007825032230
         H           -2.944759502049    -0.930137275667    -0.047325014649     1.007825032230
         H           -2.009466199249    -0.551783910867     1.400403274751     1.007825032230

  Running in c1 symmetry.

  Rotational constants: A =      0.13683  B =      0.07629  C =      0.05858 [cm^-1]
  Rotational constants: A =   4102.07234  B =   2287.07592  C =   1756.04546 [MHz]
  Nuclear repulsion =  332.419856472587242

  Charge       = 0
  Multiplicity = 1
  Electrons    = 56
  Nalpha       = 28
  Nbeta        = 28

  ==> Algorithm <==

  SCF Algorithm Type is DF.
  DIIS enabled.
  MOM disabled.
  Fractional occupation disabled.
  Guess Type is SAD.
  Energy threshold   = 1.00e-08
  Density threshold  = 1.00e-08
  Integral threshold = 0.00e+00

  ==> Primary Basis <==

  Basis Set: DEF2-TZVP
    Blend: DEF2-TZVP
    Number of shells: 133
    Number of basis function: 301
    Number of Cartesian functions: 336
    Spherical Harmonics?: true
    Max angular momentum: 3

  ==> DFT Potential <==

   => Composite Functional: PBE0 <= 

    PBE0 Hyb-GGA Exchange-Correlation Functional

    C. Adamo and V. Barone, J. Chem. Phys. 110, 6158 (1999)
    M. Ernzerhof and G. E. Scuseria, J. Chem. Phys. 110, 5029 (1999)

    Deriv               =              1
    GGA                 =           TRUE
    Meta                =          FALSE

    Exchange Hybrid     =           TRUE
    MP2 Hybrid          =          FALSE

   => Exchange Functionals <=

    0.7500   Perdew, Burke & Ernzerhof

   => Exact (HF) Exchange <=

    0.2500               HF 

   => Correlation Functionals <=

    1.0000   Perdew, Burke & Ernzerhof

   => Molecular Quadrature <=

    Radial Scheme          =       TREUTLER
    Pruning Scheme         =           FLAT
    Nuclear Scheme         =       TREUTLER

    BS radius alpha        =              1
    Pruning alpha          =              1
    Radial Points          =             75
    Spherical Points       =            302
    Total Points           =         472048
    Total Blocks           =           3446
    Max Points             =            256
    Max Functions          =            291

   => Loading Basis Set <=

    Name: (DEF2-TZVP AUX)
    Role: JKFIT
    Keyword: DF_BASIS_SCF
    atoms 1-7  entry C          line   203 file /usr/share/psi4/basis/def2-tzvp-jkfit.gbs 
    atoms 8-21 entry H          line    23 file /usr/share/psi4/basis/def2-tzvp-jkfit.gbs 

  ==> Pre-Iterations <==

   -------------------------------------------------------
    Irrep   Nso     Nmo     Nalpha   Nbeta   Ndocc  Nsocc
   -------------------------------------------------------
     A        301     301       0       0       0       0
   -------------------------------------------------------
    Total     301     301      28      28      28       0
   -------------------------------------------------------

  ==> Integral Setup <==

  DFHelper Memory: AOs need 0.537 GiB; user supplied 2.593 GiB. Using in-core AOs.

  ==> MemDFJK: Density-Fitted J/K Matrices <==

    J tasked:                   Yes
    K tasked:                   Yes
    wK tasked:                   No
    OpenMP threads:               4
    Memory [MiB]:              2655
    Algorithm:                 Core
    Schwarz Cutoff:           1E-12
    Mask sparsity (%):       2.5496
    Fitting Condition:        1E-10

   => Auxiliary Basis Set <=

  Basis Set: (DEF2-TZVP AUX)
    Blend: DEF2-TZVP-JKFIT
    Number of shells: 259
    Number of basis function: 777
    Number of Cartesian functions: 903
    Spherical Harmonics?: true
    Max angular momentum: 4

  Cached 100.0% of DFT collocation blocks in 2.995 [GiB].

  Minimum eigenvalue in the overlap matrix is 4.6769249550E-05.
  Using Symmetric Orthogonalization.

  SCF Guess: Superposition of Atomic Densities via on-the-fly atomic UHF.

  ==> Iterations <==

                           Total Energy        Delta E     RMS |[F,P]|

   @DF-RKS iter SAD:  -274.61371798909011   -2.74614e+02   0.00000e+00 
   @DF-RKS iter   1:  -274.13661933148455    4.77099e-01   4.11413e-03 DIIS
   @DF-RKS iter   2:  -273.33676604773791    7.99853e-01   5.76953e-03 DIIS
   @DF-RKS iter   3:  -274.92180620919197   -1.58504e+00   5.81908e-04 DIIS
   @DF-RKS iter   4:  -274.93333906837171   -1.15329e-02   2.61348e-04 DIIS
   @DF-RKS iter   5:  -274.93609577471466   -2.75671e-03   5.89404e-05 DIIS
   @DF-RKS iter   6:  -274.93623877974090   -1.43005e-04   9.31182e-06 DIIS
   @DF-RKS iter   7:  -274.93624256982622   -3.79009e-06   3.14338e-06 DIIS
   @DF-RKS iter   8:  -274.93624301398779   -4.44162e-07   6.94279e-07 DIIS
   @DF-RKS iter   9:  -274.93624303334241   -1.93546e-08   2.02185e-07 DIIS
   @DF-RKS iter  10:  -274.93624303515685   -1.81444e-09   3.73001e-08 DIIS
   @DF-RKS iter  11:  -274.93624303521887   -6.20162e-11   6.56546e-09 DIIS
  Energy and wave function converged.


  ==> Post-Iterations <==

    Orbital Energies [Eh]
    ---------------------

    Doubly Occupied:                                                      

       1A    -10.216750     2A    -10.207949     3A    -10.207710  
       4A    -10.207516     5A    -10.206550     6A    -10.206281  
       7A    -10.200714     8A     -0.860030     9A     -0.781840  
      10A     -0.756847    11A     -0.691599    12A     -0.633639  
      13A     -0.600317    14A     -0.533403    15A     -0.503082  
      16A     -0.488272    17A     -0.450217    18A     -0.426311  
      19A     -0.410745    20A     -0.399954    21A     -0.380815  
      22A     -0.370264    23A     -0.362518    24A     -0.356977  
      25A     -0.345224    26A     -0.304717    27A     -0.302742  
      28A     -0.301710  

    Virtual:                                                              

      29A      0.039784    30A      0.059321    31A      0.068924  
      32A      0.084743    33A      0.100261    34A      0.103312  
      35A      0.108520    36A      0.114961    37A      0.124541  
      38A      0.126054    39A      0.138089    40A      0.146955  
      41A      0.159169    42A      0.164818    43A      0.185224  
      44A      0.188818    45A      0.203554    46A      0.215588  
      47A      0.222192    48A      0.233726    49A      0.241788  
      50A      0.247857    51A      0.252326    52A      0.266243  
      53A      0.273704    54A      0.281452    55A      0.301517  
      56A      0.319800    57A      0.325081    58A      0.347404  
      59A      0.373932    60A      0.390841    61A      0.409396  
      62A      0.414527    63A      0.418209    64A      0.423092  
      65A      0.428108    66A      0.431649    67A      0.435609  
      68A      0.443267    69A      0.454836    70A      0.456870  
      71A      0.461479    72A      0.470300    73A      0.471903  
      74A      0.475928    75A      0.485834    76A      0.490736  
      77A      0.498803    78A      0.510593    79A      0.523079  
      80A      0.531067    81A      0.539209    82A      0.553794  
      83A      0.584367    84A      0.612683    85A      0.627806  
      86A      0.652373    87A      0.662969    88A      0.676018  
      89A      0.690436    90A      0.718770    91A      0.780472  
      92A      0.799336    93A      0.822146    94A      0.831855  
      95A      0.839773    96A      0.857117    97A      0.890235  
      98A      0.909592    99A      0.919766   100A      0.935241  
     101A      0.957177   102A      0.963824   103A      0.976196  
     104A      1.000604   105A      1.032055   106A      1.038019  
     107A      1.045284   108A      1.065740   109A      1.107238  
     110A      1.108263   111A      1.133335   112A      1.157698  
     113A      1.160225   114A      1.182291   115A      1.193325  
     116A      1.208610   117A      1.234679   118A      1.241970  
     119A      1.255628   120A      1.268751   121A      1.281804  
     122A      1.293827   123A      1.316239   124A      1.360129  
     125A      1.438893   126A      1.445413   127A      1.514816  
     128A      1.526277   129A      1.535333   130A      1.568052  
     131A      1.576284   132A      1.586491   133A      1.607068  
     134A      1.617916   135A      1.631645   136A      1.637757  
     137A      1.643836   138A      1.652696   139A      1.668878  
     140A      1.683674   141A      1.701889   142A      1.713227  
     143A      1.731906   144A      1.753933   145A      1.773539  
     146A      1.793876   147A      1.805821   148A      1.841882  
     149A      1.873486   150A      1.895177   151A      1.904183  
     152A      1.926194   153A      1.942746   154A      1.964428  
     155A      1.980599   156A      1.983229   157A      2.021449  
     158A      2.025496   159A      2.067138   160A      2.086641  
     161A      2.093507   162A      2.117823   163A      2.137087  
     164A      2.188353   165A      2.198455   166A      2.253478  
     167A      2.273939   168A      2.301925   169A      2.321360  
     170A      2.349606   171A      2.364559   172A      2.375863  
     173A      2.397429   174A      2.413047   175A      2.431774  
     176A      2.447696   177A      2.459802   178A      2.474487  
     179A      2.483232   180A      2.504756   181A      2.540939  
     182A      2.564358   183A      2.575194   184A      2.585146  
     185A      2.597973   186A      2.610669   187A      2.627804  
     188A      2.633260   189A      2.647644   190A      2.655338  
     191A      2.679822   192A      2.686197   193A      2.701582  
     194A      2.708670   195A      2.717881   196A      2.732751  
     197A      2.740672   198A      2.771854   199A      2.794627  
     200A      2.806910   201A      2.822954   202A      2.834845  
     203A      2.849613   204A      2.866431   205A      2.870292  
     206A      2.891618   207A      2.897307   208A      2.954928  
     209A      3.007612   210A      3.011561   211A      3.029899  
     212A      3.069121   213A      3.090477   214A      3.099399  
     215A      3.130077   216A      3.154393   217A      3.168663  
     218A      3.181120   219A      3.189310   220A      3.197528  
     221A      3.213960   222A      3.229221   223A      3.257112  
     224A      3.270116   225A      3.286504   226A      3.294027  
     227A      3.330376   228A      3.345313   229A      3.360891  
     230A      3.386673   231A      3.390192   232A      3.400726  
     233A      3.411334   234A      3.418937   235A      3.444279  
     236A      3.457042   237A      3.482022   238A      3.509616  
     239A      3.531177   240A      3.539340   241A      3.543750  
     242A      3.579393   243A      3.591961   244A      3.607193  
     245A      3.630832   246A      3.651035   247A      3.662253  
     248A      3.675828   249A      3.706991   250A      3.732881  
     251A      3.788024   252A      3.823741   253A      3.840938  
     254A      3.856661   255A      3.879369   256A      3.900618  
     257A      3.933952   258A      3.947217   259A      3.956745  
     260A      3.980672   261A      4.026177   262A      4.046170  
     263A      4.071129   264A      4.088822   265A      4.104340  
     266A      4.136045   267A      4.145449   268A      4.169872  
     269A      4.195487   270A      4.214336   271A      4.241516  
     272A      4.286334   273A      4.312644   274A      4.405035  
     275A      4.424807   276A      4.453200   277A      4.488598  
     278A      4.519709   279A      4.538495   280A      4.572553  
     281A      4.595952   282A      4.639319   283A      4.651259  
     284A      4.679201   285A      4.705236   286A      4.816105  
     287A      4.859396   288A      4.872709   289A      4.936270  
     290A      4.960603   291A      5.022574   292A      5.028877  
     293A      5.070008   294A      5.107919   295A     22.478473  
     296A     22.487573   297A     22.575069   298A     22.604699  
     299A     22.648645   300A     22.714391   301A     22.754456  

    Final Occupation by Irrep:
              A 
    DOCC [    28 ]

  @DF-RKS Final Energy:  -274.93624303521887

   => Energetics <=

    Nuclear Repulsion Energy =            332.4198564725872416
    One-Electron Energy =               -1027.9455939788995238
    Two-Electron Energy =                 453.2661368475731933
    DFT Exchange-Correlation Energy =     -32.6766423764798333
    Empirical Dispersion Energy =           0.0000000000000000
    VV10 Nonlocal Energy =                  0.0000000000000000
    Total Energy =                       -274.9362430352188653

Computation Completed


Properties will be evaluated at   0.000000,   0.000000,   0.000000 [a0]

Properties computed using the SCF density matrix

  Nuclear Dipole Moment: [e a0]
     X:    -0.9987      Y:    -0.2253      Z:     0.6768

  Electronic Dipole Moment: [e a0]
     X:     1.0174      Y:     0.2394      Z:    -0.7146

  Dipole Moment: [e a0]
     X:     0.0187      Y:     0.0141      Z:    -0.0377     Total:     0.0444

  Dipole Moment: [D]
     X:     0.0476      Y:     0.0359      Z:    -0.0959     Total:     0.1129


*** tstop() called on lenovo at Tue Jan 18 21:31:07 2022
Module time:
	user time   =     154.17 seconds =       2.57 minutes
	system time =       3.05 seconds =       0.05 minutes
	total time  =         45 seconds =       0.75 minutes
Total time:
	user time   =     154.17 seconds =       2.57 minutes
	system time =       3.05 seconds =       0.05 minutes
	total time  =         45 seconds =       0.75 minutes

*** tstart() called on lenovo
*** at Tue Jan 18 21:31:07 2022


         ------------------------------------------------------------
                                   SCF GRAD                          
                          Rob Parrish, Justin Turney,                
                       Andy Simmonett, and Alex Sokolov              
         ------------------------------------------------------------

  ==> Geometry <==

    Molecular point group: c1
    Full point group: C1

    Geometry (in Angstrom), charge = 0, multiplicity = 1:

       Center              X                  Y                   Z               Mass       
    ------------   -----------------  -----------------  -----------------  -----------------
         C           -1.082391145349     0.103713441033    -0.441630829749    12.000000000000
         C           -0.269007676449     1.261646659433     0.155567683051    12.000000000000
         C           -0.202848416249    -1.149543804467    -0.595272497249    12.000000000000
         C            1.178760187951     1.205042959633    -0.318439968249    12.000000000000
         C            0.892783045651    -1.185695304367     0.464050752551    12.000000000000
         C            1.881149901051    -0.032813525367     0.253191822551    12.000000000000
         C           -2.308975266449    -0.182167429567     0.421896901051    12.000000000000
         H           -1.431457875849     0.401194032133    -1.436803075949     1.007825032230
         H           -0.288113685349     1.204246629233     1.245687584551     1.007825032230
         H           -0.722461162449     2.212917855333    -0.129839708949     1.007825032230
         H            0.265096816151    -1.158875083967    -1.581620277749     1.007825032230
         H           -0.825199087549    -2.043273279567    -0.520863431349     1.007825032230
         H            1.711348978351     2.107632014333    -0.013102986149     1.007825032230
         H            1.189901327251     1.172846682733    -1.409795014249     1.007825032230
         H            1.422648778551    -2.139248750667     0.423550889351     1.007825032230
         H            0.435331493851    -1.110500429967     1.451948713451     1.007825032230
         H            2.673705649151    -0.344406655267    -0.429930241349     1.007825032230
         H            2.351971775851     0.214578841833     1.206682591251     1.007825032230
         H           -2.893858771949     0.724493850733     0.562990780851     1.007825032230
         H           -2.944759502049    -0.930137275667    -0.047325014649     1.007825032230
         H           -2.009466199249    -0.551783910867     1.400403274751     1.007825032230

  Nuclear repulsion =  332.419856472587242

  ==> Basis Set <==

  Basis Set: DEF2-TZVP
    Blend: DEF2-TZVP
    Number of shells: 133
    Number of basis function: 301
    Number of Cartesian functions: 336
    Spherical Harmonics?: true
    Max angular momentum: 3

  ==> DFJKGrad: Density-Fitted SCF Gradients <==

    Gradient:                    1
    J tasked:                  Yes
    K tasked:                  Yes
    wK tasked:                  No
    OpenMP threads:              4
    Integrals threads:           4
    Memory [MiB]:             5722
    Schwarz Cutoff:          0E+00
    Fitting Condition:       1E-10

   => Auxiliary Basis Set <=

  Basis Set: (DEF2-TZVP AUX)
    Blend: DEF2-TZVP-JKFIT
    Number of shells: 259
    Number of basis function: 777
    Number of Cartesian functions: 903
    Spherical Harmonics?: true
    Max angular momentum: 4

  ==> DFT Potential <==

   => Composite Functional: PBE0 <= 

    PBE0 Hyb-GGA Exchange-Correlation Functional

    C. Adamo and V. Barone, J. Chem. Phys. 110, 6158 (1999)
    M. Ernzerhof and G. E. Scuseria, J. Chem. Phys. 110, 5029 (1999)

    Deriv               =              1
    GGA                 =           TRUE
    Meta                =          FALSE

    Exchange Hybrid     =           TRUE
    MP2 Hybrid          =          FALSE

   => Exchange Functionals <=

    0.7500   Perdew, Burke & Ernzerhof

   => Exact (HF) Exchange <=

    0.2500               HF 

   => Correlation Functionals <=

    1.0000   Perdew, Burke & Ernzerhof

   => Molecular Quadrature <=

    Radial Scheme          =       TREUTLER
    Pruning Scheme         =           FLAT
    Nuclear Scheme         =       TREUTLER

    BS radius alpha        =              1
    Pruning alpha          =              1
    Radial Points          =             75
    Spherical Points       =            302
    Total Points           =         472048
    Total Blocks           =           3446
    Max Points             =            256
    Max Functions          =            291


  -Total Gradient:
     Atom            X                  Y                   Z
    ------   -----------------  -----------------  -----------------
       1        0.001839615441     0.001286160959    -0.005683632170
       2       -0.002976115234     0.001008906566     0.008812766549
       3       -0.000618017020    -0.001493347415    -0.004203472920
       4        0.001561951248    -0.000030761482    -0.005942237694
       5       -0.001156118468    -0.000521644790     0.006091654618
       6        0.003826798194    -0.000095502916     0.000837691092
       7       -0.004761724553    -0.001983794004     0.007191184230
       8       -0.000380136755    -0.000625227753     0.000071081736
       9        0.001117628515    -0.000748371025    -0.002817901835
      10        0.001451776429    -0.001282596547    -0.001745410832
      11       -0.000303309313     0.001382738939     0.002134928049
      12        0.000806164405     0.001595943566     0.001988072954
      13       -0.001144503416    -0.001223056062     0.001863340339
      14       -0.000697623024    -0.001184333390     0.001933395143
      15        0.000141795391     0.001255538073    -0.002143415317
      16        0.000244904960     0.001118681689    -0.002366405140
      17       -0.002016310915     0.000666952049    -0.000357009573
      18       -0.001989028997    -0.000412641270    -0.000525275461
      19        0.002688738104    -0.002201991494    -0.001659658027
      20        0.002675513856     0.002304102016     0.000361691498
      21       -0.000344519643     0.001190615526    -0.003825857657


*** tstop() called on lenovo at Tue Jan 18 21:31:22 2022
Module time:
	user time   =      50.67 seconds =       0.84 minutes
	system time =       0.74 seconds =       0.01 minutes
	total time  =         15 seconds =       0.25 minutes
Total time:
	user time   =     204.85 seconds =       3.41 minutes
	system time =       3.79 seconds =       0.06 minutes
	total time  =         60 seconds =       1.00 minutes

			-----------------------------------------
			 OPTKING 2.0: for geometry optimizations 
			  - R.A. King,  Bethel University        
			-----------------------------------------

	Internal coordinates to be generated automatically.
	Detected frag 1 with atoms:  1 2 3 4 5 6 7 8 9 10 11 12 13 14 15 16 17 18 19 20
	 21
	---Fragment 1 Bond Connectivity---
	 1 : 2 3 7 8
	 2 : 1 4 9 10
	 3 : 1 5 11 12
	 4 : 2 6 13 14
	 5 : 3 6 15 16
	 6 : 4 5 17 18
	 7 : 1 19 20 21
	 8 : 1
	 9 : 2
	 10 : 2
	 11 : 3
	 12 : 3
	 13 : 4
	 14 : 4
	 15 : 5
	 16 : 5
	 17 : 6
	 18 : 6
	 19 : 7
	 20 : 7
	 21 : 7

	---Fragment 1 Geometry and Gradient---
	 C          -2.0454228253        0.1959899991       -0.8345613168
	 C          -0.5083508341        2.3841666534        0.2939803149
	 C          -0.3833279517       -2.1723229597       -1.1249019898
	 C           2.2275339228        2.2772011631       -0.6017643274
	 C           1.6871154457       -2.2406393935        0.8769288306
	 C           3.5548581139       -0.0620085762        0.4784632018
	 C          -4.3633308840       -0.3442465509        0.7972695962
	 H          -2.7050633455        0.7581468439       -2.7151643098
	 H          -0.5444559583        2.2756963168        2.3540083727
	 H          -1.3652537333        4.1818086847       -0.2453614901
	 H           0.5009603793       -2.1899565223       -2.9888291594
	 H          -1.5594002744       -3.8612268978       -0.9842892340
	 H           3.2339808742        3.9828472803       -0.0247610552
	 H           2.2485876248        2.2163590175       -2.6641264700
	 H           2.6884165642       -4.0425942530        0.8003951811
	 H           0.8226572972       -2.0985416748        2.7437854166
	 H           5.0525714170       -0.6508342542       -0.8124504092
	 H           4.4445825112        0.4054952434        2.2802996178
	 H          -5.4686005247        1.3690949575        1.0638983870
	 H          -5.5647889642       -1.7577047101       -0.0894313166
	 H          -3.7973407749       -1.0427204720        2.6463786545
	             0.0018396154        0.0012861610       -0.0056836322
	            -0.0029761152        0.0010089066        0.0088127665
	            -0.0006180170       -0.0014933474       -0.0042034729
	             0.0015619512       -0.0000307615       -0.0059422377
	            -0.0011561185       -0.0005216448        0.0060916546
	             0.0038267982       -0.0000955029        0.0008376911
	            -0.0047617246       -0.0019837940        0.0071911842
	            -0.0003801368       -0.0006252278        0.0000710817
	             0.0011176285       -0.0007483710       -0.0028179018
	             0.0014517764       -0.0012825965       -0.0017454108
	            -0.0003033093        0.0013827389        0.0021349280
	             0.0008061644        0.0015959436        0.0019880730
	            -0.0011445034       -0.0012230561        0.0018633403
	            -0.0006976230       -0.0011843334        0.0019333951
	             0.0001417954        0.0012555381       -0.0021434153
	             0.0002449050        0.0011186817       -0.0023664051
	            -0.0020163109        0.0006669520       -0.0003570096
	            -0.0019890290       -0.0004126413       -0.0005252755
	             0.0026887381       -0.0022019915       -0.0016596580
	             0.0026755139        0.0023041020        0.0003616915
	            -0.0003445196        0.0011906155       -0.0038258577

	Previous optimization step data not found.  Starting new optimization.

	---Fragment 1 Intrafragment Coordinates---
	 - Coordinate -           - BOHR/RAD -       - ANG/DEG -
	 R(1,2)           =         2.902467	       1.535919
	 R(1,3)           =         2.907880	       1.538784
	 R(1,7)           =         2.885728	       1.527061
	 R(1,8)           =         2.070704	       1.095769
	 R(2,4)           =         2.880775	       1.524441
	 R(2,9)           =         2.063198	       1.091797
	 R(2,10)          =         2.063175	       1.091785
	 R(3,5)           =         2.880752	       1.524428
	 R(3,11)          =         2.063129	       1.091761
	 R(3,12)          =         2.062841	       1.091609
	 R(4,6)           =         2.898376	       1.533755
	 R(4,13)          =         2.062789	       1.091581
	 R(4,14)          =         2.063367	       1.091887
	 R(5,6)           =         2.897183	       1.533123
	 R(5,15)          =         2.062887	       1.091633
	 R(5,16)          =         2.062191	       1.091265
	 R(6,17)          =         2.063085	       1.091737
	 R(6,18)          =         2.063197	       1.091797
	 R(7,19)          =         2.056271	       1.088132
	 R(7,20)          =         2.056114	       1.088049
	 R(7,21)          =         2.056068	       1.088024
	 B(1,2,4)         =         1.932691	     110.735011
	 B(1,2,9)         =         1.916992	     109.835528
	 B(1,2,10)        =         1.912701	     109.589682
	 B(1,3,5)         =         1.939855	     111.145502
	 B(1,3,11)        =         1.920007	     110.008282
	 B(1,3,12)        =         1.911480	     109.519712
	 B(1,7,19)        =         1.927388	     110.431181
	 B(1,7,20)        =         1.932840	     110.743598
	 B(1,7,21)        =         1.929487	     110.551481
	 B(2,1,3)         =         1.928517	     110.495873
	 B(2,1,7)         =         1.924779	     110.281740
	 B(2,1,8)         =         1.893526	     108.491024
	 B(2,4,6)         =         1.927302	     110.426258
	 B(2,4,13)        =         1.923769	     110.223832
	 B(2,4,14)        =         1.898186	     108.758056
	 B(3,1,7)         =         1.942392	     111.290861
	 B(3,1,8)         =         1.888630	     108.210547
	 B(3,5,6)         =         1.928295	     110.483180
	 B(3,5,15)        =         1.921747	     110.107994
	 B(3,5,16)        =         1.903036	     109.035927
	 B(4,2,9)         =         1.901944	     108.973354
	 B(4,2,10)        =         1.923580	     110.213009
	 B(4,6,5)         =         1.942212	     111.280533
	 B(4,6,17)        =         1.906673	     109.244325
	 B(4,6,18)        =         1.917817	     109.882815
	 B(5,3,11)        =         1.896049	     108.635630
	 B(5,3,12)        =         1.920876	     110.058107
	 B(5,6,17)        =         1.917121	     109.842918
	 B(5,6,18)        =         1.905286	     109.164856
	 B(6,4,13)        =         1.917343	     109.855651
	 B(6,4,14)        =         1.922022	     110.123730
	 B(6,5,15)        =         1.916485	     109.806497
	 B(6,5,16)        =         1.920837	     110.055834
	 B(7,1,8)         =         1.884430	     107.969864
	 B(9,2,10)        =         1.875019	     107.430661
	 B(11,3,12)       =         1.874387	     107.394463
	 B(13,4,14)       =         1.874427	     107.396773
	 B(15,5,16)       =         1.872606	     107.292398
	 B(17,6,18)       =         1.873464	     107.341594
	 B(19,7,20)       =         1.890860	     108.338315
	 B(19,7,21)       =         1.890631	     108.325162
	 B(20,7,21)       =         1.891425	     108.370681
	 D(1,2,4,6)       =        -1.166718	     -66.848035
	 D(1,2,4,13)      =         2.994772	     171.587794
	 D(1,2,4,14)      =         0.944158	      54.096279
	 D(1,3,5,6)       =        -1.150539	     -65.921022
	 D(1,3,5,15)      =         3.012712	     172.615702
	 D(1,3,5,16)      =         0.962601	      55.152958
	 D(2,1,3,5)       =         0.517495	      29.650274
	 D(2,1,3,11)      =        -1.583223	     -90.711991
	 D(2,1,3,12)      =         2.643679	     151.471664
	 D(2,1,7,19)      =         0.944890	      54.138224
	 D(2,1,7,20)      =         3.039411	     174.145396
	 D(2,1,7,21)      =        -1.147174	     -65.728240
	 D(2,4,6,5)       =         0.529240	      30.323215
	 D(2,4,6,17)      =         2.649013	     151.777290
	 D(2,4,6,18)      =        -1.583152	     -90.707946
	 D(3,1,2,4)       =         0.589666	      33.785386
	 D(3,1,2,9)       =        -1.511822	     -86.621037
	 D(3,1,2,10)      =         2.715369	     155.579157
	 D(3,1,7,19)      =         3.091646	     177.138293
	 D(3,1,7,20)      =        -1.097019	     -62.854535
	 D(3,1,7,21)      =         0.999582	      57.271828
	 D(3,5,6,4)       =         0.571325	      32.734511
	 D(3,5,6,17)      =        -1.542344	     -88.369798
	 D(3,5,6,18)      =         2.691042	     154.185357
	 D(4,2,1,7)       =         2.744507	     157.248653
	 D(4,2,1,8)       =        -1.478139	     -84.691141
	 D(4,6,5,15)      =         2.694371	     154.376078
	 D(4,6,5,16)      =        -1.531200	     -87.731326
	 D(5,3,1,7)       =        -1.627117	     -93.226952
	 D(5,3,1,8)       =         2.588283	     148.297709
	 D(5,6,4,13)      =         2.654734	     152.105060
	 D(5,6,4,14)      =        -1.567374	     -89.803922
	 D(6,4,2,9)       =         0.943711	      54.070637
	 D(6,4,2,10)      =         2.997164	     171.724848
	 D(6,5,3,11)      =         0.964289	      55.249707
	 D(6,5,3,12)      =         3.011944	     172.571681
	 D(7,1,2,9)       =         0.643018	      36.842230
	 D(7,1,2,10)      =        -1.412976	     -80.957576
	 D(7,1,3,11)      =         2.555350	     146.410783
	 D(7,1,3,12)      =         0.499067	      28.594437
	 D(8,1,2,9)       =         2.703558	     154.902436
	 D(8,1,2,10)      =         0.647563	      37.102630
	 D(8,1,3,11)      =         0.487565	      27.935444
	 D(8,1,3,12)      =        -1.568718	     -89.880902
	 D(8,1,7,19)      =        -1.121232	     -64.241850
	 D(8,1,7,20)      =         0.973288	      55.765321
	 D(8,1,7,21)      =         3.069889	     175.891685
	 D(9,2,4,13)      =        -1.177984	     -67.493534
	 D(9,2,4,14)      =         3.054587	     175.014951
	 D(10,2,4,13)     =         0.875469	      50.160677
	 D(10,2,4,14)     =        -1.175145	     -67.330838
	 D(11,3,5,15)     =        -1.155645	     -66.213569
	 D(11,3,5,16)     =         3.077429	     176.323688
	 D(12,3,5,15)     =         0.892010	      51.108404
	 D(12,3,5,16)     =        -1.158102	     -66.354339
	 D(13,4,6,17)     =        -1.508678	     -86.440865
	 D(13,4,6,18)     =         0.542342	      31.073898
	 D(14,4,6,17)     =         0.552399	      31.650153
	 D(14,4,6,18)     =         2.603419	     149.164917
	 D(15,5,6,17)     =         0.580702	      33.271769
	 D(15,5,6,18)     =        -1.469097	     -84.173076
	 D(16,5,6,17)     =         2.638316	     151.164365
	 D(16,5,6,18)     =         0.588517	      33.719520

	Current energy   :      -274.9362430352

	Generating empirical Hessian (Schlegel '84) for each fragment.
	Taking RFO optimization step.
	Going to follow RFO solution 1.
	Using RFO vector 1.
	Norm of target step-size    0.15013
	Projected energy change by RFO approximation:        -0.0024845464

	Back-transformation to cartesian coordinates...
	Successfully converged to displaced geometry.

	--- Internal Coordinate Step in ANG or DEG, aJ/ANG or AJ/DEG ---
	 ---------------------------------------------------------------------------
	   Coordinate                Previous        Force       Change         New 
	   ----------                --------       ------       ------       ------
	    1 R(1,2)          =      1.535919     0.004038     0.000968     1.536887
	    2 R(1,3)          =      1.538784     0.015700     0.003169     1.541952
	    3 R(1,7)          =      1.527061    -0.008918    -0.001922     1.525139
	    4 R(1,8)          =      1.095769     0.000928     0.000174     1.095943
	    5 R(2,4)          =      1.524441    -0.001077    -0.000199     1.524242
	    6 R(2,9)          =      1.091797     0.023023     0.004261     1.096058
	    7 R(2,10)         =      1.091785     0.010423     0.001929     1.093714
	    8 R(3,5)          =      1.524428     0.000100    -0.000508     1.523920
	    9 R(3,11)         =      1.091761     0.017047     0.003154     1.094915
	   10 R(3,12)         =      1.091609     0.013441     0.002486     1.094094
	   11 R(4,6)          =      1.533755     0.011051     0.003007     1.536762
	   12 R(4,13)         =      1.091581     0.008635     0.001597     1.093178
	   13 R(4,14)         =      1.091887     0.015691     0.002905     1.094791
	   14 R(5,6)          =      1.533123     0.010562     0.002517     1.535641
	   15 R(5,15)         =      1.091633     0.007804     0.001443     1.093076
	   16 R(5,16)         =      1.091265     0.017867     0.003301     1.094565
	   17 R(6,17)         =      1.091737     0.011776     0.002179     1.093916
	   18 R(6,18)         =      1.091797     0.011613     0.002149     1.093946
	   19 R(7,19)         =      1.088132     0.028799     0.005265     1.093397
	   20 R(7,20)         =      1.088049     0.027219     0.004975     1.093024
	   21 R(7,21)         =      1.088024     0.032473     0.005935     1.093959
	   22 B(1,2,4)        =    110.735011     0.000068     0.719676   111.454687
	   23 B(1,2,9)        =    109.835528    -0.000062    -0.544260   109.291268
	   24 B(1,2,10)       =    109.589682     0.000002     0.183853   109.773535
	   25 B(1,3,5)        =    111.145502    -0.000008     0.291585   111.437087
	   26 B(1,3,11)       =    110.008282     0.000014    -0.002966   110.005315
	   27 B(1,3,12)       =    109.519712     0.000008     0.200960   109.720672
	   28 B(1,7,19)       =    110.431181     0.000138     0.673937   111.105118
	   29 B(1,7,20)       =    110.743598     0.000108     0.572610   111.316208
	   30 B(1,7,21)       =    110.551481     0.000027     0.031972   110.583454
	   31 B(2,1,3)        =    110.495873     0.000006     0.556517   111.052390
	   32 B(2,1,7)        =    110.281740     0.000058     0.573885   110.855625
	   33 B(2,1,8)        =    108.491024    -0.000058    -0.924059   107.566965
	   34 B(2,4,6)        =    110.426258    -0.000017     0.373502   110.799760
	   35 B(2,4,13)       =    110.223832     0.000057     0.651894   110.875727
	   36 B(2,4,14)       =    108.758056    -0.000000    -0.193480   108.564576
	   37 B(3,1,7)        =    111.290861     0.000011     0.553356   111.844217
	   38 B(3,1,8)        =    108.210547    -0.000002    -0.472145   107.738403
	   39 B(3,5,6)        =    110.483180     0.000007     0.326915   110.810095
	   40 B(3,5,15)       =    110.107994     0.000037     0.547596   110.655590
	   41 B(3,5,16)       =    109.035927     0.000004    -0.075756   108.960171
	   42 B(4,2,9)        =    108.973354     0.000015    -0.039348   108.934005
	   43 B(4,2,10)       =    110.213009     0.000033     0.740281   110.953290
	   44 B(4,6,5)        =    111.280533     0.000040     0.679183   111.959716
	   45 B(4,6,17)       =    109.244325     0.000032     0.279701   109.524026
	   46 B(4,6,18)       =    109.882815    -0.000024    -0.129465   109.753349
	   47 B(5,3,11)       =    108.635630     0.000004    -0.119842   108.515788
	   48 B(5,3,12)       =    110.058107     0.000054     0.642058   110.700164
	   49 B(5,6,17)       =    109.842918    -0.000027    -0.129900   109.713018
	   50 B(5,6,18)       =    109.164856     0.000030     0.230612   109.395467
	   51 B(6,4,13)       =    109.855651     0.000041     0.416504   110.272155
	   52 B(6,4,14)       =    110.123730    -0.000004    -0.174780   109.948950
	   53 B(6,5,15)       =    109.806497     0.000039     0.496178   110.302675
	   54 B(6,5,16)       =    110.055834    -0.000014    -0.195591   109.860243
	   55 B(7,1,8)        =    107.969864    -0.000019    -0.396475   107.573389
	   56 B(9,2,10)       =    107.430661    -0.000060    -1.146731   106.283930
	   57 B(11,3,12)      =    107.394463    -0.000074    -1.069335   106.325128
	   58 B(13,4,14)      =    107.396773    -0.000078    -1.134168   106.262604
	   59 B(15,5,16)      =    107.292398    -0.000076    -1.157394   106.135004
	   60 B(17,6,18)      =    107.341594    -0.000056    -1.005173   106.336421
	   61 B(19,7,20)      =    108.338315    -0.000102    -0.297335   108.040980
	   62 B(19,7,21)      =    108.325162    -0.000104    -0.616413   107.708749
	   63 B(20,7,21)      =    108.370681    -0.000078    -0.427843   107.942838
	   64 D(1,2,4,6)      =    -66.848035     0.000018     2.082371   -64.765664
	   65 D(1,2,4,13)     =    171.587794     0.000000     0.857696   172.445490
	   66 D(1,2,4,14)     =     54.096279     0.000014     1.973740    56.070019
	   67 D(1,3,5,6)      =    -65.921022     0.000011     1.326613   -64.594409
	   68 D(1,3,5,15)     =    172.615702    -0.000007     0.108023   172.723724
	   69 D(1,3,5,16)     =     55.152958     0.000008     1.240583    56.393542
	   70 D(2,1,3,5)      =     29.650274     0.000009     0.131753    29.782027
	   71 D(2,1,3,11)     =    -90.711991     0.000006     0.094446   -90.617544
	   72 D(2,1,3,12)     =    151.471664     0.000024     1.277330   152.748994
	   73 D(2,1,7,19)     =     54.138224    -0.000012    -1.315737    52.822488
	   74 D(2,1,7,20)     =    174.145396    -0.000005    -0.861873   173.283523
	   75 D(2,1,7,21)     =    -65.728240    -0.000007    -1.002578   -66.730818
	   76 D(2,4,6,5)      =     30.323215    -0.000006    -0.689741    29.633474
	   77 D(2,4,6,17)     =    151.777290    -0.000002    -0.215477   151.561813
	   78 D(2,4,6,18)     =    -90.707946    -0.000017    -1.343368   -92.051315
	   79 D(3,1,2,4)      =     33.785386    -0.000010    -1.347033    32.438353
	   80 D(3,1,2,9)      =    -86.621037    -0.000015    -1.400521   -88.021558
	   81 D(3,1,2,10)     =    155.579157     0.000010     0.198004   155.777160
	   82 D(3,1,7,19)     =    177.138293     0.000000     0.216036   177.354329
	   83 D(3,1,7,20)     =    -62.854535     0.000008     0.669900   -62.184636
	   84 D(3,1,7,21)     =     57.271828     0.000006     0.529195    57.801023
	   85 D(3,5,6,4)      =     32.734511    -0.000004    -0.672566    32.061944
	   86 D(3,5,6,17)     =    -88.369798    -0.000015    -1.388260   -89.758058
	   87 D(3,5,6,18)     =    154.185357    -0.000000    -0.233280   153.952077
	   88 D(4,2,1,7)      =    157.248653     0.000003     0.169872   157.418525
	   89 D(4,2,1,8)      =    -84.691141    -0.000002    -0.534722   -85.225862
	   90 D(4,6,5,15)     =    154.376078     0.000013     0.572375   154.948453
	   91 D(4,6,5,16)     =    -87.731326    -0.000004    -0.660987   -88.392313
	   92 D(5,3,1,7)      =    -93.226952    -0.000011    -1.413133   -94.640085
	   93 D(5,3,1,8)      =    148.297709    -0.000007    -0.955769   147.341939
	   94 D(5,6,4,13)     =    152.105060     0.000014     0.666612   152.771672
	   95 D(5,6,4,14)     =    -89.803922    -0.000002    -0.574723   -90.378645
	   96 D(6,4,2,9)      =     54.070637     0.000012     1.833243    55.903880
	   97 D(6,4,2,10)     =    171.724848     0.000002     0.844945   172.569793
	   98 D(6,5,3,11)     =     55.249707     0.000014     1.427361    56.677068
	   99 D(6,5,3,12)     =    172.571681     0.000001     0.428925   173.000605
	  100 D(7,1,2,9)      =     36.842230    -0.000002     0.116384    36.958614
	  101 D(7,1,2,10)     =    -80.957576     0.000023     1.714908   -79.242668
	  102 D(7,1,3,11)     =    146.410783    -0.000013    -1.450440   144.960343
	  103 D(7,1,3,12)     =     28.594437     0.000004    -0.267556    28.326881
	  104 D(8,1,2,9)      =    154.902436    -0.000008    -0.588210   154.314226
	  105 D(8,1,2,10)     =     37.102630     0.000017     1.010314    38.112945
	  106 D(8,1,3,11)     =     27.935444    -0.000009    -0.993076    26.942368
	  107 D(8,1,3,12)     =    -89.880902     0.000008     0.189807   -89.691095
	  108 D(8,1,7,19)     =    -64.241850    -0.000001    -0.287343   -64.529193
	  109 D(8,1,7,20)     =     55.765321     0.000006     0.166521    55.931842
	  110 D(8,1,7,21)     =    175.891685     0.000004     0.025816   175.917501
	  111 D(9,2,4,13)     =    -67.493534    -0.000006     0.608568   -66.884966
	  112 D(9,2,4,14)     =    175.014951     0.000009     1.724612   176.739562
	  113 D(10,2,4,13)    =     50.160677    -0.000016    -0.379730    49.780947
	  114 D(10,2,4,14)    =    -67.330838    -0.000002     0.736314   -66.594524
	  115 D(11,3,5,15)    =    -66.213569    -0.000004     0.208771   -66.004798
	  116 D(11,3,5,16)    =    176.323688     0.000012     1.341331   177.665019
	  117 D(12,3,5,15)    =     51.108404    -0.000017    -0.789665    50.318739
	  118 D(12,3,5,16)    =    -66.354339    -0.000001     0.342895   -66.011444
	  119 D(13,4,6,17)    =    -86.440865     0.000018     1.140876   -85.299990
	  120 D(13,4,6,18)    =     31.073898     0.000003     0.012984    31.086883
	  121 D(14,4,6,17)    =     31.650153     0.000001    -0.100459    31.549694
	  122 D(14,4,6,18)    =    149.164917    -0.000014    -1.228351   147.936566
	  123 D(15,5,6,17)    =     33.271769     0.000002    -0.143318    33.128451
	  124 D(15,5,6,18)    =    -84.173076     0.000017     1.011661   -83.161415
	  125 D(16,5,6,17)    =    151.164365    -0.000016    -1.376681   149.787685
	  126 D(16,5,6,18)    =     33.719520    -0.000001    -0.221701    33.497819
	 ---------------------------------------------------------------------------
	Successfully symmetrized geometry.

  ==> Convergence Check <==

  Measures of convergence in internal coordinates in au.
  Criteria marked as inactive (o), active & met (*), and active & unmet ( ).
  --------------------------------------------------------------------------------------------- ~
   Step     Total Energy     Delta E     MAX Force     RMS Force      MAX Disp      RMS Disp    ~
  --------------------------------------------------------------------------------------------- ~
    Convergence Criteria    1.00e-06 *    3.00e-04 *             o    1.20e-03 *             o  ~
  --------------------------------------------------------------------------------------------- ~
      1    -274.93624304   -2.75e+02      3.94e-03      9.79e-04 o    3.63e-02      1.34e-02 o  ~
  ---------------------------------------------------------------------------------------------

	Writing optimization data to binary file.
	Structure for next step:
	Cartesian Geometry (in Angstrom)
	    C    -1.0850211140   0.0974092046  -0.4256486371
	    C    -0.2705868536   1.2684640822   0.1464968427
	    C    -0.2079491757  -1.1604331263  -0.5874967926
	    C     1.1811913494   1.2159025521  -0.3149034495
	    C     0.9085867845  -1.1980179049   0.4489711868
	    C     1.8856165454  -0.0316923078   0.2409101584
	    C    -2.3173204047  -0.1763236464   0.4302473235
	    H    -1.4331031544   0.3922396090  -1.4221451690
	    H    -0.2974750582   1.2274222815   1.2414559511
	    H    -0.7368132172   2.2165214405  -0.1363987473
	    H     0.2429937062  -1.1768198730  -1.5851046691
	    H    -0.8313696691  -2.0567732361  -0.5170408672
	    H     1.7183030568   2.1194660868  -0.0147016410
	    H     1.1986477018   1.1982450242  -1.4094132582
	    H     1.4416336622  -2.1513925504   0.4070963072
	    H     0.4675683503  -1.1397708338   1.4490628534
	    H     2.6834228754  -0.3361538282  -0.4428012319
	    H     2.3704321992   0.2100364176   1.1912991279
	    H    -2.9056458073   0.7337330439   0.5758056764
	    H    -2.9635428849  -0.9268265485  -0.0321838075
	    H    -2.0254097234  -0.5453683694   1.4178407883
			--------------------------
			 OPTKING Finished Execution 
			--------------------------

    Structure for next step:
    Molecular point group: c1
    Full point group: C1

    Geometry (in Angstrom), charge = 0, multiplicity = 1:

    C           -1.085586527343     0.097955302943    -0.425560437431
    C           -0.271152263720     1.269010185190     0.146585044601
    C           -0.208514585574    -1.159887032817    -0.587408593572
    C            1.180625944993     1.216448654904    -0.314815249460
    C            0.908021379057    -1.197471811596     0.449059389866
    C            1.885051143769    -0.031146209901     0.240998360712
    C           -2.317885822855    -0.175777549095     0.430335526475
    H           -1.433668569065     0.392785708542    -1.422056973274
    H           -0.298040468455     1.227968384334     1.241544157263
    H           -0.737378629185     2.217067547209    -0.136310546552
    H            0.242428298123    -1.176273779599    -1.585016473998
    H           -0.831935081434    -2.056227146208    -0.516952667919
    H            1.717737654546     2.120012193108    -0.014613439748
    H            1.198082297454     1.198791126943    -1.409325062384
    H            1.441068258821    -2.150846460838     0.407184510156
    H            0.467002943103    -1.139224740275     1.449151060410
    H            2.682857476935    -0.335607731509    -0.442713032291
    H            2.369866799425     0.210582516466     1.191387333876
    H           -2.906211227801     0.734279144770     0.575893879941
    H           -2.964108305628    -0.926280454147    -0.032095606323
    H           -2.025975140362    -0.544822273585     1.417928995228

gradient() will perform analytic gradient computation.

*** tstart() called on lenovo
*** at Tue Jan 18 21:31:22 2022

   => Loading Basis Set <=

    Name: DEF2-TZVP
    Role: ORBITAL
    Keyword: BASIS
    atoms 1-7  entry C          line   123 file /usr/share/psi4/basis/def2-tzvp.gbs 
    atoms 8-21 entry H          line    15 file /usr/share/psi4/basis/def2-tzvp.gbs 


         ---------------------------------------------------------
                                   SCF
               by Justin Turney, Rob Parrish, Andy Simmonett
                          and Daniel G. A. Smith
                              RKS Reference
                        4 Threads,   7629 MiB Core
         ---------------------------------------------------------

  ==> Geometry <==

    Molecular point group: c1
    Full point group: C1

    Geometry (in Angstrom), charge = 0, multiplicity = 1:

       Center              X                  Y                   Z               Mass       
    ------------   -----------------  -----------------  -----------------  -----------------
         C           -1.085586527343     0.097955302943    -0.425560437431    12.000000000000
         C           -0.271152263720     1.269010185190     0.146585044601    12.000000000000
         C           -0.208514585574    -1.159887032817    -0.587408593572    12.000000000000
         C            1.180625944993     1.216448654904    -0.314815249460    12.000000000000
         C            0.908021379057    -1.197471811596     0.449059389866    12.000000000000
         C            1.885051143769    -0.031146209901     0.240998360712    12.000000000000
         C           -2.317885822855    -0.175777549095     0.430335526475    12.000000000000
         H           -1.433668569065     0.392785708542    -1.422056973274     1.007825032230
         H           -0.298040468455     1.227968384334     1.241544157263     1.007825032230
         H           -0.737378629185     2.217067547209    -0.136310546552     1.007825032230
         H            0.242428298123    -1.176273779599    -1.585016473998     1.007825032230
         H           -0.831935081434    -2.056227146208    -0.516952667919     1.007825032230
         H            1.717737654546     2.120012193108    -0.014613439748     1.007825032230
         H            1.198082297454     1.198791126943    -1.409325062384     1.007825032230
         H            1.441068258821    -2.150846460838     0.407184510156     1.007825032230
         H            0.467002943103    -1.139224740275     1.449151060410     1.007825032230
         H            2.682857476935    -0.335607731509    -0.442713032291     1.007825032230
         H            2.369866799425     0.210582516466     1.191387333876     1.007825032230
         H           -2.906211227801     0.734279144770     0.575893879941     1.007825032230
         H           -2.964108305628    -0.926280454147    -0.032095606323     1.007825032230
         H           -2.025975140362    -0.544822273585     1.417928995228     1.007825032230

  Running in c1 symmetry.

  Rotational constants: A =      0.13570  B =      0.07588  C =      0.05792 [cm^-1]
  Rotational constants: A =   4068.12187  B =   2274.85446  C =   1736.49510 [MHz]
  Nuclear repulsion =  331.367127052526484

  Charge       = 0
  Multiplicity = 1
  Electrons    = 56
  Nalpha       = 28
  Nbeta        = 28

  ==> Algorithm <==

  SCF Algorithm Type is DF.
  DIIS enabled.
  MOM disabled.
  Fractional occupation disabled.
  Guess Type is READ.
  Energy threshold   = 1.00e-08
  Density threshold  = 1.00e-08
  Integral threshold = 0.00e+00

  ==> Primary Basis <==

  Basis Set: DEF2-TZVP
    Blend: DEF2-TZVP
    Number of shells: 133
    Number of basis function: 301
    Number of Cartesian functions: 336
    Spherical Harmonics?: true
    Max angular momentum: 3

  ==> DFT Potential <==

   => Composite Functional: PBE0 <= 

    PBE0 Hyb-GGA Exchange-Correlation Functional

    C. Adamo and V. Barone, J. Chem. Phys. 110, 6158 (1999)
    M. Ernzerhof and G. E. Scuseria, J. Chem. Phys. 110, 5029 (1999)

    Deriv               =              1
    GGA                 =           TRUE
    Meta                =          FALSE

    Exchange Hybrid     =           TRUE
    MP2 Hybrid          =          FALSE

   => Exchange Functionals <=

    0.7500   Perdew, Burke & Ernzerhof

   => Exact (HF) Exchange <=

    0.2500               HF 

   => Correlation Functionals <=

    1.0000   Perdew, Burke & Ernzerhof

   => Molecular Quadrature <=

    Radial Scheme          =       TREUTLER
    Pruning Scheme         =           FLAT
    Nuclear Scheme         =       TREUTLER

    BS radius alpha        =              1
    Pruning alpha          =              1
    Radial Points          =             75
    Spherical Points       =            302
    Total Points           =         472056
    Total Blocks           =           3451
    Max Points             =            256
    Max Functions          =            291

   => Loading Basis Set <=

    Name: (DEF2-TZVP AUX)
    Role: JKFIT
    Keyword: DF_BASIS_SCF
    atoms 1-7  entry C          line   203 file /usr/share/psi4/basis/def2-tzvp-jkfit.gbs 
    atoms 8-21 entry H          line    23 file /usr/share/psi4/basis/def2-tzvp-jkfit.gbs 

   => Loading Basis Set <=

    Name: DEF2-TZVP
    Role: ORBITAL
    Keyword: BASIS
    atoms 1-7  entry C          line   123 file /usr/share/psi4/basis/def2-tzvp.gbs 
    atoms 8-21 entry H          line    15 file /usr/share/psi4/basis/def2-tzvp.gbs 

  Reading orbitals from file 180, no projection.

  ==> Pre-Iterations <==

   -------------------------------------------------------
    Irrep   Nso     Nmo     Nalpha   Nbeta   Ndocc  Nsocc
   -------------------------------------------------------
     A        301     301       0       0       0       0
   -------------------------------------------------------
    Total     301     301      28      28      28       0
   -------------------------------------------------------

  ==> Integral Setup <==

  DFHelper Memory: AOs need 0.536 GiB; user supplied 2.602 GiB. Using in-core AOs.

  ==> MemDFJK: Density-Fitted J/K Matrices <==

    J tasked:                   Yes
    K tasked:                   Yes
    wK tasked:                   No
    OpenMP threads:               4
    Memory [MiB]:              2664
    Algorithm:                 Core
    Schwarz Cutoff:           1E-12
    Mask sparsity (%):       2.6159
    Fitting Condition:        1E-10

   => Auxiliary Basis Set <=

  Basis Set: (DEF2-TZVP AUX)
    Blend: DEF2-TZVP-JKFIT
    Number of shells: 259
    Number of basis function: 777
    Number of Cartesian functions: 903
    Spherical Harmonics?: true
    Max angular momentum: 4

  Cached 100.0% of DFT collocation blocks in 2.986 [GiB].

  Minimum eigenvalue in the overlap matrix is 4.8944961269E-05.
  Using Symmetric Orthogonalization.

  SCF Guess: Orbitals guess was supplied from a previous computation.

  ==> Iterations <==

                           Total Energy        Delta E     RMS |[F,P]|

   @DF-RKS iter   0:  -274.92655994234053   -2.74927e+02   1.49225e-04 
   @DF-RKS iter   1:  -274.93673070969623   -1.01708e-02   1.33951e-05 DIIS
   @DF-RKS iter   2:  -274.93673898252183   -8.27283e-06   9.33023e-06 DIIS
   @DF-RKS iter   3:  -274.93674272635815   -3.74384e-06   3.43802e-06 DIIS
   @DF-RKS iter   4:  -274.93674321885896   -4.92501e-07   7.31078e-07 DIIS
   @DF-RKS iter   5:  -274.93674324214817   -2.32892e-08   2.43285e-07 DIIS
   @DF-RKS iter   6:  -274.93674324469885   -2.55068e-09   7.13510e-08 DIIS
   @DF-RKS iter   7:  -274.93674324491195   -2.13106e-10   1.31343e-08 DIIS
   @DF-RKS iter   8:  -274.93674324491974   -7.78755e-12   3.75385e-09 DIIS
  Energy and wave function converged.


  ==> Post-Iterations <==

    Orbital Energies [Eh]
    ---------------------

    Doubly Occupied:                                                      

       1A    -10.217544     2A    -10.209274     3A    -10.209043  
       4A    -10.208873     5A    -10.207786     6A    -10.207655  
       7A    -10.202709     8A     -0.858183     9A     -0.781134  
      10A     -0.756983    11A     -0.691183    12A     -0.633250  
      13A     -0.600855    14A     -0.533410    15A     -0.501404  
      16A     -0.487024    17A     -0.449200    18A     -0.425570  
      19A     -0.409382    20A     -0.399531    21A     -0.382512  
      22A     -0.368090    23A     -0.362877    24A     -0.356770  
      25A     -0.344059    26A     -0.305624    27A     -0.303295  
      28A     -0.300973  

    Virtual:                                                              

      29A      0.038968    30A      0.059704    31A      0.068559  
      32A      0.084379    33A      0.099802    34A      0.102736  
      35A      0.108495    36A      0.114378    37A      0.123851  
      38A      0.126057    39A      0.137350    40A      0.145856  
      41A      0.158043    42A      0.163691    43A      0.184314  
      44A      0.188892    45A      0.203470    46A      0.216182  
      47A      0.221877    48A      0.233401    49A      0.242301  
      50A      0.247117    51A      0.251517    52A      0.265034  
      53A      0.273772    54A      0.281484    55A      0.300935  
      56A      0.319021    57A      0.322053    58A      0.346904  
      59A      0.371409    60A      0.390126    61A      0.408039  
      62A      0.414182    63A      0.416670    64A      0.423850  
      65A      0.427056    66A      0.432389    67A      0.434922  
      68A      0.441844    69A      0.454056    70A      0.457423  
      71A      0.460371    72A      0.468960    73A      0.470610  
      74A      0.474849    75A      0.485257    76A      0.489352  
      77A      0.498229    78A      0.509263    79A      0.520803  
      80A      0.531185    81A      0.536713    82A      0.550985  
      83A      0.580924    84A      0.609861    85A      0.627643  
      86A      0.646320    87A      0.663354    88A      0.672558  
      89A      0.687294    90A      0.712717    91A      0.779245  
      92A      0.801226    93A      0.820033    94A      0.830598  
      95A      0.839112    96A      0.856285    97A      0.887408  
      98A      0.907998    99A      0.917401   100A      0.934037  
     101A      0.957101   102A      0.962116   103A      0.976482  
     104A      0.998363   105A      1.032634   106A      1.034568  
     107A      1.043097   108A      1.066063   109A      1.103450  
     110A      1.107063   111A      1.130180   112A      1.153773  
     113A      1.159951   114A      1.180937   115A      1.195122  
     116A      1.206963   117A      1.237158   118A      1.241473  
     119A      1.252541   120A      1.266316   121A      1.279485  
     122A      1.292391   123A      1.315091   124A      1.360579  
     125A      1.442008   126A      1.448663   127A      1.515147  
     128A      1.529914   129A      1.536775   130A      1.568159  
     131A      1.575527   132A      1.586413   133A      1.606136  
     134A      1.616384   135A      1.629999   136A      1.637021  
     137A      1.643041   138A      1.652322   139A      1.669554  
     140A      1.684790   141A      1.703962   142A      1.715550  
     143A      1.736108   144A      1.754823   145A      1.775101  
     146A      1.793786   147A      1.805515   148A      1.839212  
     149A      1.876833   150A      1.890941   151A      1.902900  
     152A      1.923780   153A      1.941573   154A      1.958247  
     155A      1.973417   156A      1.980091   157A      2.018705  
     158A      2.021219   159A      2.057399   160A      2.082539  
     161A      2.089397   162A      2.111440   163A      2.128005  
     164A      2.183900   165A      2.190123   166A      2.244624  
     167A      2.267608   168A      2.295356   169A      2.316974  
     170A      2.347830   171A      2.367140   172A      2.370551  
     173A      2.395960   174A      2.410181   175A      2.430491  
     176A      2.446288   177A      2.453430   178A      2.474361  
     179A      2.485065   180A      2.503385   181A      2.540134  
     182A      2.559285   183A      2.566899   184A      2.582991  
     185A      2.594846   186A      2.601592   187A      2.618215  
     188A      2.623813   189A      2.650974   190A      2.653598  
     191A      2.679288   192A      2.689571   193A      2.696022  
     194A      2.711413   195A      2.715577   196A      2.729984  
     197A      2.736946   198A      2.764246   199A      2.787661  
     200A      2.801304   201A      2.823178   202A      2.828161  
     203A      2.846316   204A      2.865201   205A      2.869152  
     206A      2.889980   207A      2.897224   208A      2.952794  
     209A      2.997960   210A      3.006022   211A      3.031134  
     212A      3.066149   213A      3.086808   214A      3.095900  
     215A      3.122820   216A      3.151378   217A      3.165703  
     218A      3.176872   219A      3.182555   220A      3.189641  
     221A      3.210225   222A      3.226962   223A      3.253150  
     224A      3.268823   225A      3.287391   226A      3.292844  
     227A      3.324008   228A      3.340776   229A      3.358367  
     230A      3.380353   231A      3.384110   232A      3.395325  
     233A      3.404663   234A      3.412300   235A      3.440690  
     236A      3.450053   237A      3.474290   238A      3.509153  
     239A      3.522382   240A      3.528031   241A      3.539974  
     242A      3.574198   243A      3.590633   244A      3.597499  
     245A      3.625620   246A      3.646014   247A      3.663806  
     248A      3.674493   249A      3.699380   250A      3.726068  
     251A      3.781004   252A      3.817443   253A      3.835864  
     254A      3.843540   255A      3.880419   256A      3.902139  
     257A      3.927629   258A      3.947221   259A      3.953262  
     260A      3.977954   261A      4.019970   262A      4.043385  
     263A      4.070772   264A      4.083743   265A      4.095215  
     266A      4.125600   267A      4.139751   268A      4.163904  
     269A      4.193301   270A      4.208349   271A      4.234625  
     272A      4.275328   273A      4.294427   274A      4.397463  
     275A      4.415140   276A      4.448565   277A      4.472224  
     278A      4.503061   279A      4.526959   280A      4.558453  
     281A      4.591971   282A      4.628992   283A      4.640945  
     284A      4.679900   285A      4.709191   286A      4.810419  
     287A      4.855086   288A      4.887647   289A      4.933611  
     290A      4.956361   291A      5.019678   292A      5.028670  
     293A      5.070121   294A      5.109374   295A     22.463999  
     296A     22.466933   297A     22.565159   298A     22.590328  
     299A     22.636833   300A     22.705697   301A     22.749952  

    Final Occupation by Irrep:
              A 
    DOCC [    28 ]

  @DF-RKS Final Energy:  -274.93674324491974

   => Energetics <=

    Nuclear Repulsion Energy =            331.3671270525264845
    One-Electron Energy =               -1025.8530503663930631
    Two-Electron Energy =                 452.2098644330098978
    DFT Exchange-Correlation Energy =     -32.6606843640630515
    Empirical Dispersion Energy =           0.0000000000000000
    VV10 Nonlocal Energy =                  0.0000000000000000
    Total Energy =                       -274.9367432449197395

Computation Completed


Properties will be evaluated at   0.000000,   0.000000,   0.000000 [a0]

Properties computed using the SCF density matrix

  Nuclear Dipole Moment: [e a0]
     X:    -1.0108      Y:    -0.2136      Z:     0.6787

  Electronic Dipole Moment: [e a0]
     X:     1.0303      Y:     0.2263      Z:    -0.7172

  Dipole Moment: [e a0]
     X:     0.0195      Y:     0.0128      Z:    -0.0384     Total:     0.0449

  Dipole Moment: [D]
     X:     0.0495      Y:     0.0325      Z:    -0.0977     Total:     0.1142


*** tstop() called on lenovo at Tue Jan 18 21:31:56 2022
Module time:
	user time   =     116.21 seconds =       1.94 minutes
	system time =       1.25 seconds =       0.02 minutes
	total time  =         34 seconds =       0.57 minutes
Total time:
	user time   =     321.98 seconds =       5.37 minutes
	system time =       5.06 seconds =       0.08 minutes
	total time  =         94 seconds =       1.57 minutes

*** tstart() called on lenovo
*** at Tue Jan 18 21:31:56 2022


         ------------------------------------------------------------
                                   SCF GRAD                          
                          Rob Parrish, Justin Turney,                
                       Andy Simmonett, and Alex Sokolov              
         ------------------------------------------------------------

  ==> Geometry <==

    Molecular point group: c1
    Full point group: C1

    Geometry (in Angstrom), charge = 0, multiplicity = 1:

       Center              X                  Y                   Z               Mass       
    ------------   -----------------  -----------------  -----------------  -----------------
         C           -1.085586527343     0.097955302943    -0.425560437431    12.000000000000
         C           -0.271152263720     1.269010185190     0.146585044601    12.000000000000
         C           -0.208514585574    -1.159887032817    -0.587408593572    12.000000000000
         C            1.180625944993     1.216448654904    -0.314815249460    12.000000000000
         C            0.908021379057    -1.197471811596     0.449059389866    12.000000000000
         C            1.885051143769    -0.031146209901     0.240998360712    12.000000000000
         C           -2.317885822855    -0.175777549095     0.430335526475    12.000000000000
         H           -1.433668569065     0.392785708542    -1.422056973274     1.007825032230
         H           -0.298040468455     1.227968384334     1.241544157263     1.007825032230
         H           -0.737378629185     2.217067547209    -0.136310546552     1.007825032230
         H            0.242428298123    -1.176273779599    -1.585016473998     1.007825032230
         H           -0.831935081434    -2.056227146208    -0.516952667919     1.007825032230
         H            1.717737654546     2.120012193108    -0.014613439748     1.007825032230
         H            1.198082297454     1.198791126943    -1.409325062384     1.007825032230
         H            1.441068258821    -2.150846460838     0.407184510156     1.007825032230
         H            0.467002943103    -1.139224740275     1.449151060410     1.007825032230
         H            2.682857476935    -0.335607731509    -0.442713032291     1.007825032230
         H            2.369866799425     0.210582516466     1.191387333876     1.007825032230
         H           -2.906211227801     0.734279144770     0.575893879941     1.007825032230
         H           -2.964108305628    -0.926280454147    -0.032095606323     1.007825032230
         H           -2.025975140362    -0.544822273585     1.417928995228     1.007825032230

  Nuclear repulsion =  331.367127052526428

  ==> Basis Set <==

  Basis Set: DEF2-TZVP
    Blend: DEF2-TZVP
    Number of shells: 133
    Number of basis function: 301
    Number of Cartesian functions: 336
    Spherical Harmonics?: true
    Max angular momentum: 3

  ==> DFJKGrad: Density-Fitted SCF Gradients <==

    Gradient:                    1
    J tasked:                  Yes
    K tasked:                  Yes
    wK tasked:                  No
    OpenMP threads:              4
    Integrals threads:           4
    Memory [MiB]:             5722
    Schwarz Cutoff:          0E+00
    Fitting Condition:       1E-10

   => Auxiliary Basis Set <=

  Basis Set: (DEF2-TZVP AUX)
    Blend: DEF2-TZVP-JKFIT
    Number of shells: 259
    Number of basis function: 777
    Number of Cartesian functions: 903
    Spherical Harmonics?: true
    Max angular momentum: 4

  ==> DFT Potential <==

   => Composite Functional: PBE0 <= 

    PBE0 Hyb-GGA Exchange-Correlation Functional

    C. Adamo and V. Barone, J. Chem. Phys. 110, 6158 (1999)
    M. Ernzerhof and G. E. Scuseria, J. Chem. Phys. 110, 5029 (1999)

    Deriv               =              1
    GGA                 =           TRUE
    Meta                =          FALSE

    Exchange Hybrid     =           TRUE
    MP2 Hybrid          =          FALSE

   => Exchange Functionals <=

    0.7500   Perdew, Burke & Ernzerhof

   => Exact (HF) Exchange <=

    0.2500               HF 

   => Correlation Functionals <=

    1.0000   Perdew, Burke & Ernzerhof

   => Molecular Quadrature <=

    Radial Scheme          =       TREUTLER
    Pruning Scheme         =           FLAT
    Nuclear Scheme         =       TREUTLER

    BS radius alpha        =              1
    Pruning alpha          =              1
    Radial Points          =             75
    Spherical Points       =            302
    Total Points           =         472056
    Total Blocks           =           3451
    Max Points             =            256
    Max Functions          =            291


  -Total Gradient:
     Atom            X                  Y                   Z
    ------   -----------------  -----------------  -----------------
       1        0.001226708184     0.000049544464    -0.000318781446
       2       -0.001773970370     0.001418468659     0.000891650926
       3       -0.000956757791    -0.001091158282    -0.001465417698
       4        0.001568406044     0.001324547773    -0.000968430326
       5        0.000567903442    -0.001310391262     0.001307159109
       6        0.001239762685    -0.000019616154     0.000214219497
       7       -0.002280040556    -0.000453376154     0.001583478965
       8       -0.000064926241     0.000064785430     0.000514518962
       9        0.000139447748    -0.000287744418    -0.000894990897
      10        0.000191366074     0.000004309302    -0.000254481064
      11        0.000239129601     0.000068408569     0.000498862216
      12        0.000089218817     0.000056332692     0.000215523435
      13       -0.000009052033     0.000045377320     0.000145488513
      14       -0.000277197004    -0.000196502144     0.000616155937
      15       -0.000119771754    -0.000012549180    -0.000270822939
      16        0.000081363498     0.000172243379    -0.000644941953
      17       -0.000288464464    -0.000135194653     0.000046799565
      18       -0.000248538737     0.000105565931    -0.000124951433
      19        0.000198534225     0.000041422186    -0.000257697764
      20        0.000083047149     0.000035036108    -0.000179848852
      21        0.000351225628     0.000126607630    -0.000637361395


*** tstop() called on lenovo at Tue Jan 18 21:32:14 2022
Module time:
	user time   =      63.61 seconds =       1.06 minutes
	system time =       0.73 seconds =       0.01 minutes
	total time  =         18 seconds =       0.30 minutes
Total time:
	user time   =     385.60 seconds =       6.43 minutes
	system time =       5.79 seconds =       0.10 minutes
	total time  =        112 seconds =       1.87 minutes

			-----------------------------------------
			 OPTKING 2.0: for geometry optimizations 
			  - R.A. King,  Bethel University        
			-----------------------------------------

	Previous internal coordinate definitions found.
	---Fragment 1 Geometry and Gradient---
	 C          -2.0514612222        0.1851086951       -0.8041926766
	 C          -0.5124035167        2.3980817004        0.2770055884
	 C          -0.3940354599       -2.1918688285       -1.1100413656
	 C           2.2310596926        2.2987548034       -0.5949146016
	 C           1.7159117225       -2.2628937669        0.8485992609
	 C           3.5622303942       -0.0588578066        0.4554208984
	 C          -4.3801693953       -0.3321714268        0.8132162871
	 H          -2.7092409502        0.7422574151       -2.6872982143
	 H          -0.5632148597        2.3205239371        2.3461784299
	 H          -1.3934436599        4.1896504659       -0.2575896010
	 H           0.4581230885       -2.2228352920       -2.9952470402
	 H          -1.5721294581       -3.8857061581       -0.9768989622
	 H           3.2460537225        4.0062424276       -0.0276153989
	 H           2.2640474179        2.2653869116       -2.6632383896
	 H           2.7232243373       -4.0645107489        0.7694672067
	 H           0.8825076622       -2.1528227545        2.7384986186
	 H           5.0698658650       -0.6342066981       -0.8366063832
	 H           4.4783992047        0.3979432829        2.2513957704
	 H          -5.4919432833        1.3875864833        1.0882817104
	 H          -5.6013529038       -1.7504163737       -0.0606519058
	 H          -3.8285381523       -1.0295648841        2.6794974663
	             0.0012267082        0.0000495445       -0.0003187814
	            -0.0017739704        0.0014184687        0.0008916509
	            -0.0009567578       -0.0010911583       -0.0014654177
	             0.0015684060        0.0013245478       -0.0009684303
	             0.0005679034       -0.0013103913        0.0013071591
	             0.0012397627       -0.0000196162        0.0002142195
	            -0.0022800406       -0.0004533762        0.0015834790
	            -0.0000649262        0.0000647854        0.0005145190
	             0.0001394477       -0.0002877444       -0.0008949909
	             0.0001913661        0.0000043093       -0.0002544811
	             0.0002391296        0.0000684086        0.0004988622
	             0.0000892188        0.0000563327        0.0002155234
	            -0.0000090520        0.0000453773        0.0001454885
	            -0.0002771970       -0.0001965021        0.0006161559
	            -0.0001197718       -0.0000125492       -0.0002708229
	             0.0000813635        0.0001722434       -0.0006449420
	            -0.0002884645       -0.0001351947        0.0000467996
	            -0.0002485387        0.0001055659       -0.0001249514
	             0.0001985342        0.0000414222       -0.0002576978
	             0.0000830471        0.0000350361       -0.0001798489
	             0.0003512256        0.0001266076       -0.0006373614

	---Fragment 1 Intrafragment Coordinates---
	 - Coordinate -           - BOHR/RAD -       - ANG/DEG -
	 R(1,2)           =         2.904296	       1.536887
	 R(1,3)           =         2.913868	       1.541952
	 R(1,7)           =         2.882095	       1.525139
	 R(1,8)           =         2.071032	       1.095943
	 R(2,4)           =         2.880399	       1.524242
	 R(2,9)           =         2.071249	       1.096058
	 R(2,10)          =         2.066819	       1.093714
	 R(3,5)           =         2.879791	       1.523920
	 R(3,11)          =         2.069090	       1.094915
	 R(3,12)          =         2.067539	       1.094094
	 R(4,6)           =         2.904059	       1.536762
	 R(4,13)          =         2.065806	       1.093178
	 R(4,14)          =         2.068856	       1.094791
	 R(5,6)           =         2.901940	       1.535641
	 R(5,15)          =         2.065615	       1.093076
	 R(5,16)          =         2.068429	       1.094565
	 R(6,17)          =         2.067202	       1.093916
	 R(6,18)          =         2.067259	       1.093946
	 R(7,19)          =         2.066221	       1.093397
	 R(7,20)          =         2.065515	       1.093024
	 R(7,21)          =         2.067283	       1.093959
	 B(1,2,4)         =         1.945251	     111.454687
	 B(1,2,9)         =         1.907492	     109.291268
	 B(1,2,10)        =         1.915910	     109.773535
	 B(1,3,5)         =         1.944944	     111.437087
	 B(1,3,11)        =         1.919955	     110.005315
	 B(1,3,12)        =         1.914987	     109.720672
	 B(1,7,19)        =         1.939150	     111.105118
	 B(1,7,20)        =         1.942834	     111.316208
	 B(1,7,21)        =         1.930045	     110.583454
	 B(2,1,3)         =         1.938230	     111.052390
	 B(2,1,7)         =         1.934796	     110.855625
	 B(2,1,8)         =         1.877398	     107.566965
	 B(2,4,6)         =         1.933821	     110.799760
	 B(2,4,13)        =         1.935146	     110.875727
	 B(2,4,14)        =         1.894809	     108.564576
	 B(3,1,7)         =         1.952050	     111.844217
	 B(3,1,8)         =         1.880390	     107.738403
	 B(3,5,6)         =         1.934001	     110.810095
	 B(3,5,15)        =         1.931304	     110.655590
	 B(3,5,16)        =         1.901714	     108.960171
	 B(4,2,9)         =         1.901257	     108.934005
	 B(4,2,10)        =         1.936500	     110.953290
	 B(4,6,5)         =         1.954066	     111.959716
	 B(4,6,17)        =         1.911555	     109.524026
	 B(4,6,18)        =         1.915557	     109.753349
	 B(5,3,11)        =         1.893958	     108.515788
	 B(5,3,12)        =         1.932082	     110.700164
	 B(5,6,17)        =         1.914853	     109.713018
	 B(5,6,18)        =         1.909311	     109.395467
	 B(6,4,13)        =         1.924612	     110.272155
[...]
	 B(7,1,8)         =         1.881674	     107.811985
	 B(9,2,10)        =         1.850099	     106.002839
	 B(11,3,12)       =         1.851856	     106.103515
	 B(13,4,14)       =         1.850924	     106.050116
	 B(15,5,16)       =         1.848478	     105.909989
	 B(17,6,18)       =         1.853507	     106.198140
	 B(19,7,20)       =         1.883309	     107.905653
	 B(19,7,21)       =         1.875243	     107.443527
	 B(20,7,21)       =         1.880477	     107.743374
	 D(1,2,4,6)       =        -1.138980	     -65.258725
	 D(1,2,4,13)      =         3.001279	     171.960627
	 D(1,2,4,14)      =         0.972439	      55.716651
	 D(1,3,5,6)       =        -1.131699	     -64.841570
	 D(1,3,5,15)      =         3.009835	     172.450830
	 D(1,3,5,16)      =         0.981791	      56.252490
	 D(2,1,3,5)       =         0.512295	      29.352367
	 D(2,1,3,11)      =        -1.592658	     -91.252604
	 D(2,1,3,12)      =         2.660502	     152.435552
	 D(2,1,7,19)      =         0.928288	      53.187007
	 D(2,1,7,20)      =         3.031460	     173.689858
	 D(2,1,7,21)      =        -1.157432	     -66.315964
	 D(2,4,6,5)       =         0.513235	      29.406212
	 D(2,4,6,17)      =         2.642086	     151.380390
	 D(2,4,6,18)      =        -1.611104	     -92.309459
	 D(3,1,2,4)       =         0.578709	      33.157597
	 D(3,1,2,9)       =        -1.527009	     -87.491197
	 D(3,1,2,10)      =         2.733533	     156.619914
	 D(3,1,7,19)      =         3.095221	     177.343073
	 D(3,1,7,20)      =        -1.084793	     -62.154077
	 D(3,1,7,21)      =         1.009500	      57.840101
	 D(3,5,6,4)       =         0.568267	      32.559298
	 D(3,5,6,17)      =        -1.557775	     -89.253908
	 D(3,5,6,18)      =         2.697076	     154.531085
	 D(4,2,1,7)       =         2.756104	     157.913123
	 D(4,2,1,8)       =        -1.472971	     -84.395020
	 D(4,6,5,15)      =         2.715304	     155.575480
	 D(4,6,5,16)      =        -1.536383	     -88.028283
	 D(5,3,1,7)       =        -1.655175	     -94.834567
	 D(5,3,1,8)       =         2.563387	     146.871253
	 D(5,6,4,13)      =         2.662778	     152.565968
	 D(5,6,4,14)      =        -1.584832	     -90.804208
	 D(6,4,2,9)       =         0.970159	      55.586040
	 D(6,4,2,10)      =         3.003227	     172.072243
	 D(6,5,3,11)      =         0.985822	      56.483447
	 D(6,5,3,12)      =         3.014356	     172.709888
	 D(7,1,2,9)       =         0.650385	      37.264329
	 D(7,1,2,10)      =        -1.372257	     -78.624560
	 D(7,1,3,11)      =         2.523056	     144.560462
	 D(7,1,3,12)      =         0.493031	      28.248617
	 D(8,1,2,9)       =         2.704496	     154.956186
	 D(8,1,2,10)      =         0.681853	      39.067297
	 D(8,1,3,11)      =         0.458433	      26.266281
	 D(8,1,3,12)      =        -1.571592	     -90.045563
	 D(8,1,7,19)      =        -1.124277	     -64.416304
	 D(8,1,7,20)      =         0.978895	      56.086547
	 D(8,1,7,21)      =         3.073188	     176.080725
	 D(9,2,4,13)      =        -1.172767	     -67.194608
	 D(9,2,4,14)      =         3.081578	     176.561416
	 D(10,2,4,13)     =         0.860301	      49.291596
	 D(10,2,4,14)     =        -1.168539	     -66.952380
	 D(11,3,5,15)     =        -1.155830	     -66.224154
	 D(11,3,5,16)     =         3.099312	     177.577507
	 D(12,3,5,15)     =         0.872705	      50.002287
	 D(12,3,5,16)     =        -1.155339	     -66.196052
	 D(13,4,6,17)     =        -1.491556	     -85.459854
	 D(13,4,6,18)     =         0.538439	      30.850297
	 D(14,4,6,17)     =         0.544019	      31.169970
	 D(14,4,6,18)     =         2.574014	     147.480121
	 D(15,5,6,17)     =         0.589263	      33.762274
	 D(15,5,6,18)     =        -1.439072	     -82.452734
	 D(16,5,6,17)     =         2.620760	     150.158511
	 D(16,5,6,18)     =         0.592426	      33.943503

	Current energy   :      -274.9367915022

	Energy change for the previous step:
		Projected    :         0.0000041501
		Actual       :        -0.0000001526

	Performing BFGS update.
	Previous computed or guess Hessian on step 1.
	Steps to be used in Hessian update: 4 3
	Taking RFO optimization step.
	Going to follow RFO solution 1.
	Using RFO vector 1.
	Norm of target step-size    0.00696
	Projected energy change by RFO approximation:         0.0000040386

	Back-transformation to cartesian coordinates...
	Successfully converged to displaced geometry.

	--- Internal Coordinate Step in ANG or DEG, aJ/ANG or AJ/DEG ---
	 ---------------------------------------------------------------------------
	   Coordinate                Previous        Force       Change         New 
	   ----------                --------       ------       ------       ------
	    1 R(1,2)          =      1.535465     0.000123     0.000058     1.535524
	    2 R(1,3)          =      1.541144     0.000241     0.000056     1.541201
	    3 R(1,7)          =      1.521369    -0.000122    -0.000023     1.521346
	    4 R(1,8)          =      1.096590    -0.000047    -0.000012     1.096578
	    5 R(2,4)          =      1.520919     0.000027     0.000008     1.520927
	    6 R(2,9)          =      1.097515    -0.000036    -0.000012     1.097503
	    7 R(2,10)         =      1.093956     0.000034     0.000006     1.093963
	    8 R(3,5)          =      1.521630     0.000066     0.000023     1.521654
	    9 R(3,11)         =      1.095573    -0.000042    -0.000013     1.095560
	   10 R(3,12)         =      1.094366    -0.000019    -0.000003     1.094364
	   11 R(4,6)          =      1.534939     0.000112     0.000008     1.534947
	   12 R(4,13)         =      1.093228    -0.000006     0.000002     1.093229
	   13 R(4,14)         =      1.095852    -0.000000    -0.000006     1.095847
	   14 R(5,6)          =      1.533401     0.000121     0.000057     1.533458
	   15 R(5,15)         =      1.093274     0.000050     0.000009     1.093283
	   16 R(5,16)         =      1.095620    -0.000043    -0.000011     1.095609
	   17 R(6,17)         =      1.094335    -0.000037    -0.000008     1.094327
	   18 R(6,18)         =      1.094339    -0.000013    -0.000005     1.094333
	   19 R(7,19)         =      1.093741     0.000100     0.000017     1.093758
	   20 R(7,20)         =      1.093177     0.000034     0.000007     1.093184
	   21 R(7,21)         =      1.094913     0.000042     0.000003     1.094916
	   22 B(1,2,4)        =    111.406423    -0.000000    -0.001799   111.404624
	   23 B(1,2,9)        =    109.391127    -0.000000    -0.005070   109.386057
	   24 B(1,2,10)       =    109.718740    -0.000000    -0.000634   109.718106
	   25 B(1,3,5)        =    111.445820    -0.000000    -0.001134   111.444685
	   26 B(1,3,11)       =    109.940914    -0.000000    -0.002714   109.938200
	   27 B(1,3,12)       =    109.694120    -0.000000    -0.005053   109.689067
	   28 B(1,7,19)       =    111.282209     0.000001     0.003939   111.286147
	   29 B(1,7,20)       =    111.452853    -0.000000     0.000269   111.453122
	   30 B(1,7,21)       =    110.836599     0.000000     0.001269   110.837867
	   31 B(2,1,3)        =    110.780669    -0.000000    -0.001525   110.779144
	   32 B(2,1,7)        =    110.835813    -0.000000    -0.001884   110.833930
	   33 B(2,1,8)        =    107.666988     0.000000     0.002945   107.669934
	   34 B(2,4,6)        =    110.730645     0.000000    -0.002698   110.727947
	   35 B(2,4,13)       =    110.928772    -0.000000     0.001595   110.930367
	   36 B(2,4,14)       =    108.726064     0.000000     0.001436   108.727500
	   37 B(3,1,7)        =    111.835192     0.000000    -0.001420   111.833772
	   38 B(3,1,8)        =    107.722112    -0.000000    -0.001010   107.721102
	   39 B(3,5,6)        =    110.769220     0.000000     0.003258   110.772478
	   40 B(3,5,15)       =    110.799151     0.000000     0.000921   110.800073
	   41 B(3,5,16)       =    109.059720     0.000000    -0.002134   109.057586
	   42 B(4,2,9)        =    109.056820     0.000000    -0.000525   109.056294
	   43 B(4,2,10)       =    111.106477     0.000000     0.004459   111.110935
	   44 B(4,6,5)        =    111.783311    -0.000000    -0.002036   111.781275
	   45 B(4,6,17)       =    109.548709     0.000000     0.004025   109.552734
	   46 B(4,6,18)       =    109.885808    -0.000000    -0.007365   109.878443
	   47 B(5,3,11)       =    108.708928     0.000000     0.004383   108.713311
	   48 B(5,3,12)       =    110.801418     0.000000     0.001637   110.803055
	   49 B(5,6,17)       =    109.828650     0.000000     0.007135   109.835786
	   50 B(5,6,18)       =    109.440648    -0.000000    -0.004845   109.435802
	   51 B(6,4,13)       =    110.274586    -0.000000    -0.002034   110.272552
	   52 B(6,4,14)       =    110.012510    -0.000000     0.000358   110.012868
	   53 B(6,5,15)       =    110.266933     0.000000     0.002110   110.269043
	   54 B(6,5,16)       =    109.914308    -0.000000    -0.004624   109.909683
	   55 B(7,1,8)        =    107.811985     0.000000     0.003250   107.815235
	   56 B(9,2,10)       =    106.002839     0.000000     0.003674   106.006512
	   57 B(11,3,12)      =    106.103515     0.000000     0.003135   106.106650
	   58 B(13,4,14)      =    106.050116     0.000000     0.001590   106.051705
	   59 B(15,5,16)      =    105.909989     0.000000     0.000181   105.910169
	   60 B(17,6,18)      =    106.198140     0.000000     0.003356   106.201496
	   61 B(19,7,20)      =    107.905653    -0.000000    -0.002768   107.902885
	   62 B(19,7,21)      =    107.443527    -0.000001    -0.001441   107.442085
	   63 B(20,7,21)      =    107.743374    -0.000000    -0.001590   107.741784
	   64 D(1,2,4,6)      =    -65.258725     0.000000    -0.013310   -65.272035
	   65 D(1,2,4,13)     =    171.960627     0.000000    -0.009938   171.950689
	   66 D(1,2,4,14)     =     55.716651     0.000000    -0.013620    55.703031
	   67 D(1,3,5,6)      =    -64.841570     0.000000     0.002228   -64.839342
	   68 D(1,3,5,15)     =    172.450830    -0.000000    -0.003368   172.447462
	   69 D(1,3,5,16)     =     56.252490    -0.000000    -0.002848    56.249643
	   70 D(2,1,3,5)      =     29.352367    -0.000000     0.046463    29.398830
	   71 D(2,1,3,11)     =    -91.252604    -0.000000     0.043513   -91.209091
	   72 D(2,1,3,12)     =    152.435552    -0.000000     0.044226   152.479777
	   73 D(2,1,7,19)     =     53.187007     0.000000     0.071928    53.258935
	   74 D(2,1,7,20)     =    173.689858     0.000000     0.071287   173.761145
	   75 D(2,1,7,21)     =    -66.315964     0.000000     0.070310   -66.245653
	   76 D(2,4,6,5)      =     29.406212     0.000000     0.062555    29.468767
	   77 D(2,4,6,17)     =    151.380390     0.000000     0.073026   151.453415
	   78 D(2,4,6,18)     =    -92.309459     0.000000     0.075178   -92.234281
	   79 D(3,1,2,4)      =     33.157597    -0.000000    -0.042979    33.114618
	   80 D(3,1,2,9)      =    -87.491197     0.000000    -0.037801   -87.528998
	   81 D(3,1,2,10)     =    156.619914     0.000000    -0.038977   156.580937
	   82 D(3,1,7,19)     =    177.343073     0.000000     0.067504   177.410577
	   83 D(3,1,7,20)     =    -62.154077    -0.000000     0.066864   -62.087214
	   84 D(3,1,7,21)     =     57.840101    -0.000000     0.065887    57.905988
	   85 D(3,5,6,4)      =     32.559298     0.000000    -0.056960    32.502338
	   86 D(3,5,6,17)     =    -89.253908    -0.000000    -0.065653   -89.319561
	   87 D(3,5,6,18)     =    154.531085    -0.000000    -0.070987   154.460098
	   88 D(4,2,1,7)      =    157.913123    -0.000000    -0.047290   157.865833
	   89 D(4,2,1,8)      =    -84.395020    -0.000000    -0.042661   -84.437681
	   90 D(4,6,5,15)     =    155.575480     0.000000    -0.052091   155.523390
	   91 D(4,6,5,16)     =    -88.028283     0.000000    -0.053368   -88.081652
	   92 D(5,3,1,7)      =    -94.834567     0.000000     0.051085   -94.783482
	   93 D(5,3,1,8)      =    146.871253     0.000000     0.048565   146.919818
	   94 D(5,6,4,13)     =    152.565968    -0.000000     0.061316   152.627284
	   95 D(5,6,4,14)     =    -90.804208    -0.000000     0.062263   -90.741945
	   96 D(6,4,2,9)      =     55.586040    -0.000000    -0.021132    55.564907
	   97 D(6,4,2,10)     =    172.072243     0.000000    -0.014396   172.057847
	   98 D(6,5,3,11)     =     56.483447    -0.000000     0.001039    56.484485
	   99 D(6,5,3,12)     =    172.709888     0.000000     0.008343   172.718231
	  100 D(7,1,2,9)      =     37.264329    -0.000000    -0.042112    37.222216
	  101 D(7,1,2,10)     =    -78.624560     0.000000    -0.043288   -78.667848
	  102 D(7,1,3,11)     =    144.560462     0.000000     0.048135   144.608596
	  103 D(7,1,3,12)     =     28.248617     0.000000     0.048847    28.297465
	  104 D(8,1,2,9)      =    154.956186     0.000000    -0.037483   154.918702
	  105 D(8,1,2,10)     =     39.067297     0.000000    -0.038659    39.028638
	  106 D(8,1,3,11)     =     26.266281    -0.000000     0.045615    26.311896
	  107 D(8,1,3,12)     =    -90.045563     0.000000     0.046328   -89.999235
	  108 D(8,1,7,19)     =    -64.416304     0.000000     0.067484   -64.348819
	  109 D(8,1,7,20)     =     56.086547     0.000000     0.066844    56.153390
	  110 D(8,1,7,21)     =    176.080725     0.000000     0.065867   176.146592
	  111 D(9,2,4,13)     =    -67.194608    -0.000000    -0.017761   -67.212368
	  112 D(9,2,4,14)     =    176.561416    -0.000000    -0.021443   176.539974
	  113 D(10,2,4,13)    =     49.291596     0.000000    -0.011025    49.280571
	  114 D(10,2,4,14)    =    -66.952380     0.000000    -0.014707   -66.967087
	  115 D(11,3,5,15)    =    -66.224154    -0.000000    -0.004557   -66.228711
	  116 D(11,3,5,16)    =    177.577507    -0.000000    -0.004037   177.573470
	  117 D(12,3,5,15)    =     50.002287     0.000000     0.002747    50.005035
	  118 D(12,3,5,16)    =    -66.196052     0.000000     0.003268   -66.192785
	  119 D(13,4,6,17)    =    -85.459854     0.000000     0.071787   -85.388068
	  120 D(13,4,6,18)    =     30.850297     0.000000     0.073939    30.924236
	  121 D(14,4,6,17)    =     31.169970     0.000000     0.072734    31.242704
	  122 D(14,4,6,18)    =    147.480121     0.000000     0.074887   147.555007
	  123 D(15,5,6,17)    =     33.762274     0.000000    -0.060783    33.701490
	  124 D(15,5,6,18)    =    -82.452734    -0.000000    -0.066117   -82.518851
	  125 D(16,5,6,17)    =    150.158511    -0.000000    -0.062061   150.096449
	  126 D(16,5,6,18)    =     33.943503    -0.000000    -0.067395    33.876108
	 ---------------------------------------------------------------------------
	Successfully symmetrized geometry.

  ==> Convergence Check <==

  Measures of convergence in internal coordinates in au.
  Criteria marked as inactive (o), active & met (*), and active & unmet ( ).
  ---------------------------------------------------------------------------------------------
   Step     Total Energy     Delta E     MAX Force     RMS Force      MAX Disp      RMS Disp   
  ---------------------------------------------------------------------------------------------
    Convergence Criteria    1.00e-06 *    3.00e-04 *             o    1.20e-03 *             o
  ---------------------------------------------------------------------------------------------
      5    -274.93679150   -1.53e-07 *    2.92e-05 *    5.03e-06 o    1.31e-03      6.20e-04 o  ~
  ---------------------------------------------------------------------------------------------


  **** Optimization is complete! (in 5 steps) ****

  ==> Optimization Summary <==

  Measures of convergence in internal coordinates in au.
  --------------------------------------------------------------------------------------------------------------- ~
   Step         Total Energy             Delta E       MAX Force       RMS Force        MAX Disp        RMS Disp  ~
  --------------------------------------------------------------------------------------------------------------- ~
      1    -274.936243035219   -274.936243035219      0.00394153      0.00097865      0.03634423      0.01336537  ~
      2    -274.936743244920     -0.000500209701      0.00165117      0.00034552      0.02261946      0.00852695  ~
      3    -274.936789146924     -0.000045902005      0.00042440      0.00009449      0.00577250      0.00278393  ~
      4    -274.936791349628     -0.000002202704      0.00024845      0.00004226      0.00176526      0.00069600  ~
      5    -274.936791502213     -0.000000152585      0.00002923      0.00000503      0.00131211      0.00061967  ~
  --------------------------------------------------------------------------------------------------------------- ~

	Writing optimization data to binary file.
	Final energy is   -274.9367915022126
	Final (previous) structure:
	Cartesian Geometry (in Angstrom)
	    C    -1.0847725685   0.0976610825  -0.4269486177
	    C    -0.2698286331   1.2632156387   0.1518459996
	    C    -0.2064731988  -1.1590011569  -0.5835254873
	    C     1.1768592218   1.2148149812  -0.3150011265
	    C     0.9073632537  -1.1919128461   0.4526424034
	    C     1.8846981078  -0.0300906667   0.2374596405
	    C    -2.3170183281  -0.1754578965   0.4224861901
	    H    -1.4252224679   0.3936204591  -1.4264545578
	    H    -0.2943853849   1.2160561614   1.2480726357
	    H    -0.7398522975   2.2129762511  -0.1197664510
	    H     0.2423860527  -1.1790207230  -1.5827271443
	    H    -0.8297626199  -2.0557369873  -0.5127267397
	    H     1.7137734802   2.1193450789  -0.0171833746
	    H     1.1926687761   1.1999861347  -1.4106391729
	    H     1.4401448988  -2.1460138025   0.4197189705
	    H     0.4667241381  -1.1283670621   1.4537331255
	    H     2.6787063228  -0.3355753250  -0.4508708907
	    H     2.3775904019   0.2113515366   1.1842119500
	    H    -2.9090967022   0.7328018070   0.5666285472
	    H    -2.9622182726  -0.9275147374  -0.0392110358
	    H    -2.0329280334  -0.5428668226   1.4140188414
	Saving final (previous) structure.
			--------------------------
			 OPTKING Finished Execution 
			--------------------------

    Final optimized geometry and variables:
    Molecular point group: c1
    Full point group: C1

    Geometry (in Angstrom), charge = 0, multiplicity = 1:

    C           -1.084772572725     0.097661082861    -0.426948619364
    C           -0.269828634164     1.263215643698     0.151846000240
    C           -0.206473199625    -1.159001161459    -0.583525489579
    C            1.176859226464     1.214814985942    -0.315001127747
    C            0.907363257262    -1.191912850760     0.452642405206
    C            1.884698115214    -0.030090666805     0.237459641463
    C           -2.317018337161    -0.175457897165     0.422486191724
    H           -1.425222473487     0.393620460695    -1.426454563456
    H           -0.294385386017     1.216056166209     1.248072640606
    H           -0.739852300453     2.212976259780    -0.119766451456
    H            0.242386053647    -1.179020727639    -1.582727150494
    H           -0.829762623148    -2.055736995359    -0.512726741679
    H            1.713773486888     2.119345087241    -0.017183374672
    H            1.192668780781     1.199986139446    -1.410639178452
    H            1.440144904478    -2.146013810886     0.419718972136
    H            0.466724139915    -1.128367066490     1.453733131221
    H            2.678706333334    -0.335575326336    -0.450870892425
    H            2.377590411270     0.211351537476     1.184211954676
    H           -2.909096713662     0.732801809891     0.566628549409
    H           -2.962218284290    -0.927514741095    -0.039211035940
    H           -2.032928041418    -0.542866824717     1.414018846959

	Removing binary optimization data file.
	Cleaning optimization helper files.

    Psi4 stopped on: Tuesday, 18 January 2022 09:34PM
    Psi4 wall time for execution: 0:04:04.07

*** Psi4 exiting successfully. Buy a developer a beer!
