
    -----------------------------------------------------------------------
          Psi4: An Open-Source Ab Initio Electronic Structure Package
                               Psi4 1.3.2 release

                         Git: Rev {} zzzzzzz 


    R. M. Parrish, L. A. Burns, D. G. A. Smith, A. C. Simmonett,
    A. E. DePrince III, E. G. Hohenstein, U. Bozkaya, A. Yu. Sokolov,
    R. Di Remigio, R. M. Richard, J. F. Gonthier, A. M. James,
    H. R. McAlexander, A. Kumar, M. Saitow, X. Wang, B. P. Pritchard,
    P. Verma, H. F. Schaefer III, K. Patkowski, R. A. King, E. F. Valeev,
    F. A. Evangelista, J. M. Turney, T. D. Crawford, and C. D. Sherrill,
    J. Chem. Theory Comput. 13(7) pp 3185--3197 (2017).
    (doi: 10.1021/acs.jctc.7b00174)


                         Additional Contributions by
    P. Kraus, H. Kruse, M. H. Lechner, M. C. Schieber, R. A. Shaw,
    A. Alenaizan, R. Galvelis, Z. L. Glick, S. Lehtola, and J. P. Misiewicz

    -----------------------------------------------------------------------


    Psi4 started on: Saturday, 10 July 2021 12:49PM

    Process ID: 1189601
    Host:       thinkpad
    PSIDATADIR: /usr/share/psi4
    Memory:     500.0 MiB
    Threads:    4
    
  ==> Input File <==

--------------------------------------------------------------------------
memory 8 gb

molecule {
0 1
 C          1.1122459188        0.0000568036       -0.5144886837
 C          0.2383102248       -1.2536147504       -0.6290680665
 C          0.2382940818        1.2537314373       -0.6289941809
 C         -0.9170128478       -1.2517762782        0.3681562966
 C         -0.9170459445        1.2517261748        0.3682098339
 C         -1.7707282619       -0.0000352632        0.1946205243
 C          1.9520541251       -0.0001017567        0.7615182816
 H          1.8101577901        0.0001279764       -1.3614705513
 H          0.8541806326       -2.1435326342       -0.4803873019
 H         -0.1734239491       -1.3010169529       -1.6406156265
 H         -0.1733819216        1.3013620810       -1.6405635568
 H          0.8541442683        2.1436202352       -0.4800688497
 H         -0.5295425838       -1.2905078071        1.3876321247
 H         -1.5294907966       -2.1434780588        0.2153006724
 H         -1.5295624548        2.1433887004        0.2152997842
 H         -0.5296224667        1.2904902096        1.3877040945
 H         -2.2124479811       -0.0000076093       -0.8050687998
 H         -2.5867077205       -0.0000578636        0.9208763751
 H          2.5892654805       -0.8817040654        0.7917396731
 H          2.5882984443        0.8820793037        0.7924505851
 H          1.3294142929       -0.0006010560        1.6510680350
}

set basis def2-tzvp
optimize('pbe0')
--------------------------------------------------------------------------

  Memory set to   7.451 GiB by Python driver.
gradient() will perform analytic gradient computation.

*** tstart() called on thinkpad
*** at Sat Jul 10 12:49:55 2021

   => Loading Basis Set <=

    Name: DEF2-TZVP
    Role: ORBITAL
    Keyword: BASIS
    atoms 1-7  entry C          line   123 file /usr/share/psi4/basis/def2-tzvp.gbs 
    atoms 8-21 entry H          line    15 file /usr/share/psi4/basis/def2-tzvp.gbs 


         ---------------------------------------------------------
                                   SCF
               by Justin Turney, Rob Parrish, Andy Simmonett
                          and Daniel G. A. Smith
                              RKS Reference
                        4 Threads,   7629 MiB Core
         ---------------------------------------------------------

  ==> Geometry <==

    Molecular point group: c1
    Full point group: C1

    Geometry (in Angstrom), charge = 0, multiplicity = 1:

       Center              X                  Y                   Z               Mass       
    ------------   -----------------  -----------------  -----------------  -----------------
         C            1.112239338006     0.000056802207    -0.514496929521    12.000000000000
         C            0.238303644006    -1.253614751793    -0.629076312321    12.000000000000
         C            0.238287501006     1.253731435907    -0.629002426721    12.000000000000
         C           -0.917019428594    -1.251776279593     0.368148050779    12.000000000000
         C           -0.917052525294     1.251726173407     0.368201588079    12.000000000000
         C           -1.770734842694    -0.000035264593     0.194612278479    12.000000000000
         C            1.952047544306    -0.000101758093     0.761510035779    12.000000000000
         H            1.810151209306     0.000127975007    -1.361478797121     1.007825032230
         H            0.854174051806    -2.143532635593    -0.480395547721     1.007825032230
         H           -0.173430529894    -1.301016954293    -1.640623872321     1.007825032230
         H           -0.173388502394     1.301362079607    -1.640571802621     1.007825032230
         H            0.854137687506     2.143620233807    -0.480077095521     1.007825032230
         H           -0.529549164594    -1.290507808493     1.387623878879     1.007825032230
         H           -1.529497377394    -2.143478060193     0.215292426579     1.007825032230
         H           -1.529569035594     2.143388699007     0.215291538379     1.007825032230
         H           -0.529629047494     1.290490208207     1.387695848679     1.007825032230
         H           -2.212454561894    -0.000007610693    -0.805077045621     1.007825032230
         H           -2.586714301294    -0.000057864993     0.920868129279     1.007825032230
         H            2.589258899706    -0.881704066793     0.791731427279     1.007825032230
         H            2.588291863506     0.882079302307     0.792442339279     1.007825032230
         H            1.329407712106    -0.000601057393     1.651059789179     1.007825032230

  Running in c1 symmetry.

  Rotational constants: A =      0.11818  B =      0.08539  C =      0.06505 [cm^-1]
  Rotational constants: A =   3543.04643  B =   2559.97539  C =   1950.16750 [MHz]
  Nuclear repulsion =  334.576347488425768

  Charge       = 0
  Multiplicity = 1
  Electrons    = 56
  Nalpha       = 28
  Nbeta        = 28

  ==> Algorithm <==

  SCF Algorithm Type is DF.
  DIIS enabled.
  MOM disabled.
  Fractional occupation disabled.
  Guess Type is SAD.
  Energy threshold   = 1.00e-08
  Density threshold  = 1.00e-08
  Integral threshold = 0.00e+00

  ==> Primary Basis <==

  Basis Set: DEF2-TZVP
    Blend: DEF2-TZVP
    Number of shells: 133
    Number of basis function: 301
    Number of Cartesian functions: 336
    Spherical Harmonics?: true
    Max angular momentum: 3

  ==> DFT Potential <==

   => Composite Functional: PBE0 <= 

    PBE0 Hyb-GGA Exchange-Correlation Functional

    C. Adamo and V. Barone, J. Chem. Phys. 110, 6158 (1999)
    M. Ernzerhof and G. E. Scuseria, J. Chem. Phys. 110, 5029 (1999)

    Deriv               =              1
    GGA                 =           TRUE
    Meta                =          FALSE

    Exchange Hybrid     =           TRUE
    MP2 Hybrid          =          FALSE

   => Exchange Functionals <=

    0.7500   Perdew, Burke & Ernzerhof

   => Exact (HF) Exchange <=

    0.2500               HF 

   => Correlation Functionals <=

    1.0000   Perdew, Burke & Ernzerhof

   => Molecular Quadrature <=

    Radial Scheme          =       TREUTLER
    Pruning Scheme         =           FLAT
    Nuclear Scheme         =       TREUTLER

    BS radius alpha        =              1
    Pruning alpha          =              1
    Radial Points          =             75
    Spherical Points       =            302
    Total Points           =         472035
    Total Blocks           =           3425
    Max Points             =            256
    Max Functions          =            292

   => Loading Basis Set <=

    Name: (DEF2-TZVP AUX)
    Role: JKFIT
    Keyword: DF_BASIS_SCF
    atoms 1-7  entry C          line   203 file /usr/share/psi4/basis/def2-tzvp-jkfit.gbs 
    atoms 8-21 entry H          line    23 file /usr/share/psi4/basis/def2-tzvp-jkfit.gbs 

  ==> Pre-Iterations <==

   -------------------------------------------------------
    Irrep   Nso     Nmo     Nalpha   Nbeta   Ndocc  Nsocc
   -------------------------------------------------------
     A        301     301       0       0       0       0
   -------------------------------------------------------
    Total     301     301      28      28      28       0
   -------------------------------------------------------

  ==> Integral Setup <==

  DFHelper Memory: AOs need 0.540 GiB; user supplied 2.561 GiB. Using in-core AOs.

  ==> MemDFJK: Density-Fitted J/K Matrices <==

    J tasked:                   Yes
    K tasked:                   Yes
    wK tasked:                   No
    OpenMP threads:               4
    Memory [MiB]:              2622
    Algorithm:                 Core
    Schwarz Cutoff:           1E-12
    Mask sparsity (%):       1.8521
    Fitting Condition:        1E-10

   => Auxiliary Basis Set <=

  Basis Set: (DEF2-TZVP AUX)
    Blend: DEF2-TZVP-JKFIT
    Number of shells: 259
    Number of basis function: 777
    Number of Cartesian functions: 903
    Spherical Harmonics?: true
    Max angular momentum: 4

  Cached 100.0% of DFT collocation blocks in 3.027 [GiB].

  Minimum eigenvalue in the overlap matrix is 9.4435539974E-05.
  Using Symmetric Orthogonalization.

  SCF Guess: Superposition of Atomic Densities via on-the-fly atomic UHF.

  ==> Iterations <==

                           Total Energy        Delta E     RMS |[F,P]|

   @DF-RKS iter SAD:  -274.62998415965734   -2.74630e+02   0.00000e+00 
   @DF-RKS iter   1:  -274.13479210717355    4.95192e-01   4.14358e-03 DIIS
   @DF-RKS iter   2:  -273.28632615620887    8.48466e-01   5.89114e-03 DIIS
   @DF-RKS iter   3:  -274.92970187399544   -1.64338e+00   5.74782e-04 DIIS
   @DF-RKS iter   4:  -274.94115768335655   -1.14558e-02   2.41479e-04 DIIS
   @DF-RKS iter   5:  -274.94345749676228   -2.29981e-03   6.28927e-05 DIIS
   @DF-RKS iter   6:  -274.94362010521104   -1.62608e-04   9.71630e-06 DIIS
   @DF-RKS iter   7:  -274.94362423654752   -4.13134e-06   3.34442e-06 DIIS
   @DF-RKS iter   8:  -274.94362474468244   -5.08135e-07   6.82939e-07 DIIS
   @DF-RKS iter   9:  -274.94362476374801   -1.90656e-08   1.88212e-07 DIIS
   @DF-RKS iter  10:  -274.94362476535144   -1.60344e-09   4.12844e-08 DIIS
   @DF-RKS iter  11:  -274.94362476542545   -7.40101e-11   1.20443e-08 DIIS
   @DF-RKS iter  12:  -274.94362476543091   -5.45697e-12   3.72639e-09 DIIS
  Energy and wave function converged.


  ==> Post-Iterations <==

    Orbital Energies [Eh]
    ---------------------

    Doubly Occupied:                                                      

       1A    -10.216640     2A    -10.207639     3A    -10.207412  
       4A    -10.207282     5A    -10.206775     6A    -10.206761  
       7A    -10.200659     8A     -0.860055     9A     -0.781105  
      10A     -0.759868    11A     -0.695711    12A     -0.621617  
      13A     -0.609538    14A     -0.543469    15A     -0.498080  
      16A     -0.461192    17A     -0.458461    18A     -0.438254  
      19A     -0.412639    20A     -0.410418    21A     -0.383859  
      22A     -0.367621    23A     -0.365057    24A     -0.346147  
      25A     -0.343046    26A     -0.317490    27A     -0.300003  
      28A     -0.299306  

    Virtual:                                                              

      29A      0.039563    30A      0.059840    31A      0.073884  
      32A      0.081960    33A      0.101521    34A      0.102852  
      35A      0.107986    36A      0.120174    37A      0.122168  
      38A      0.124960    39A      0.140342    40A      0.147790  
      41A      0.167697    42A      0.171295    43A      0.173973  
      44A      0.199841    45A      0.200350    46A      0.223715  
      47A      0.224233    48A      0.229573    49A      0.239289  
      50A      0.244722    51A      0.254807    52A      0.257727  
      53A      0.275225    54A      0.280295    55A      0.297371  
      56A      0.305912    57A      0.327357    58A      0.334403  
      59A      0.374069    60A      0.404912    61A      0.405668  
      62A      0.413204    63A      0.417960    64A      0.423963  
      65A      0.435158    66A      0.436332    67A      0.443394  
      68A      0.451951    69A      0.455356    70A      0.461542  
      71A      0.463788    72A      0.473344    73A      0.475286  
      74A      0.481767    75A      0.481895    76A      0.501195  
      77A      0.501772    78A      0.509196    79A      0.515414  
      80A      0.522957    81A      0.525636    82A      0.542646  
      83A      0.592909    84A      0.617429    85A      0.637214  
      86A      0.656038    87A      0.668776    88A      0.734028  
      89A      0.748657    90A      0.766525    91A      0.768005  
      92A      0.781762    93A      0.791257    94A      0.808283  
      95A      0.827975    96A      0.853181    97A      0.853789  
      98A      0.890352    99A      0.914423   100A      0.921726  
     101A      0.935855   102A      0.952692   103A      0.969598  
     104A      1.009188   105A      1.027596   106A      1.045298  
     107A      1.049456   108A      1.060065   109A      1.124011  
     110A      1.124530   111A      1.140888   112A      1.166473  
     113A      1.176652   114A      1.187211   115A      1.187528  
     116A      1.201806   117A      1.248277   118A      1.258045  
     119A      1.262535   120A      1.276676   121A      1.300025  
     122A      1.313839   123A      1.315143   124A      1.329770  
     125A      1.427869   126A      1.430106   127A      1.492274  
     128A      1.540679   129A      1.551734   130A      1.569116  
     131A      1.587944   132A      1.594366   133A      1.610228  
     134A      1.619388   135A      1.638121   136A      1.638274  
     137A      1.652245   138A      1.657400   139A      1.673978  
     140A      1.688598   141A      1.699387   142A      1.722951  
     143A      1.749333   144A      1.756907   145A      1.786661  
     146A      1.799507   147A      1.839422   148A      1.845519  
     149A      1.882534   150A      1.892106   151A      1.907950  
     152A      1.912469   153A      1.940778   154A      1.976677  
     155A      2.002982   156A      2.011010   157A      2.020996  
     158A      2.055918   159A      2.090897   160A      2.130345  
     161A      2.145799   162A      2.146903   163A      2.178479  
     164A      2.182487   165A      2.213191   166A      2.244732  
     167A      2.260759   168A      2.274415   169A      2.311848  
     170A      2.344085   171A      2.355029   172A      2.378812  
     173A      2.427796   174A      2.429108   175A      2.431451  
     176A      2.459960   177A      2.470769   178A      2.505420  
     179A      2.523644   180A      2.542172   181A      2.544712  
     182A      2.549338   183A      2.561227   184A      2.587484  
     185A      2.606049   186A      2.621431   187A      2.626036  
     188A      2.639221   189A      2.643604   190A      2.654419  
     191A      2.668561   192A      2.674487   193A      2.683438  
     194A      2.698361   195A      2.719721   196A      2.734365  
     197A      2.765611   198A      2.777377   199A      2.795944  
     200A      2.796167   201A      2.824690   202A      2.839091  
     203A      2.860515   204A      2.862945   205A      2.876684  
     206A      2.882733   207A      2.913460   208A      2.955680  
     209A      2.972755   210A      2.979467   211A      3.021730  
     212A      3.057006   213A      3.057534   214A      3.092887  
     215A      3.100749   216A      3.141986   217A      3.149861  
     218A      3.160200   219A      3.189079   220A      3.203116  
     221A      3.222112   222A      3.231505   223A      3.262203  
     224A      3.291814   225A      3.293888   226A      3.307247  
     227A      3.307840   228A      3.335837   229A      3.367418  
     230A      3.372874   231A      3.389382   232A      3.420794  
     233A      3.424059   234A      3.435237   235A      3.442559  
     236A      3.475104   237A      3.487306   238A      3.514795  
     239A      3.519846   240A      3.526748   241A      3.534766  
     242A      3.566062   243A      3.596751   244A      3.599917  
     245A      3.608918   246A      3.618436   247A      3.621241  
     248A      3.648670   249A      3.680903   250A      3.693431  
     251A      3.695258   252A      3.771025   253A      3.787773  
     254A      3.842366   255A      3.902985   256A      3.924079  
     257A      3.952669   258A      3.993371   259A      4.002455  
     260A      4.031505   261A      4.063549   262A      4.073710  
     263A      4.084087   264A      4.084374   265A      4.113885  
     266A      4.134621   267A      4.162728   268A      4.195283  
     269A      4.203861   270A      4.247277   271A      4.289518  
     272A      4.294903   273A      4.316794   274A      4.385170  
     275A      4.410362   276A      4.443643   277A      4.449751  
     278A      4.479420   279A      4.524893   280A      4.539076  
     281A      4.579927   282A      4.640540   283A      4.659494  
     284A      4.712908   285A      4.774246   286A      4.784732  
     287A      4.858868   288A      4.867950   289A      4.913378  
     290A      4.936598   291A      5.019438   292A      5.065514  
     293A      5.101408   294A      5.102747   295A     22.510138  
     296A     22.543112   297A     22.586318   298A     22.619423  
     299A     22.658531   300A     22.723628   301A     22.753985  

    Final Occupation by Irrep:
              A 
    DOCC [    28 ]

  @DF-RKS Final Energy:  -274.94362476543091

   => Energetics <=

    Nuclear Repulsion Energy =            334.5763474884257676
    One-Electron Energy =               -1032.2489759714353568
    Two-Electron Energy =                 455.4081091099368450
    DFT Exchange-Correlation Energy =     -32.6791053923581742
    Empirical Dispersion Energy =           0.0000000000000000
    VV10 Nonlocal Energy =                  0.0000000000000000
    Total Energy =                       -274.9436247654309113

Computation Completed


Properties will be evaluated at   0.000000,   0.000000,   0.000000 [a0]

Properties computed using the SCF density matrix

  Nuclear Dipole Moment: [e a0]
     X:     0.7136      Y:     0.0002      Z:     0.8941

  Electronic Dipole Moment: [e a0]
     X:    -0.7155      Y:    -0.0001      Z:    -0.9232

  Dipole Moment: [e a0]
     X:    -0.0019      Y:     0.0001      Z:    -0.0291     Total:     0.0291

  Dipole Moment: [D]
     X:    -0.0049      Y:     0.0001      Z:    -0.0739     Total:     0.0740


*** tstop() called on thinkpad at Sat Jul 10 12:50:38 2021
Module time:
	user time   =     146.70 seconds =       2.45 minutes
	system time =       2.39 seconds =       0.04 minutes
	total time  =         43 seconds =       0.72 minutes
Total time:
	user time   =     146.70 seconds =       2.45 minutes
	system time =       2.39 seconds =       0.04 minutes
	total time  =         43 seconds =       0.72 minutes

*** tstart() called on thinkpad
*** at Sat Jul 10 12:50:38 2021


         ------------------------------------------------------------
                                   SCF GRAD                          
                          Rob Parrish, Justin Turney,                
                       Andy Simmonett, and Alex Sokolov              
         ------------------------------------------------------------

  ==> Geometry <==

    Molecular point group: c1
    Full point group: C1

    Geometry (in Angstrom), charge = 0, multiplicity = 1:

       Center              X                  Y                   Z               Mass       
    ------------   -----------------  -----------------  -----------------  -----------------
         C            1.112239338006     0.000056802207    -0.514496929521    12.000000000000
         C            0.238303644006    -1.253614751793    -0.629076312321    12.000000000000
         C            0.238287501006     1.253731435907    -0.629002426721    12.000000000000
         C           -0.917019428594    -1.251776279593     0.368148050779    12.000000000000
         C           -0.917052525294     1.251726173407     0.368201588079    12.000000000000
         C           -1.770734842694    -0.000035264593     0.194612278479    12.000000000000
         C            1.952047544306    -0.000101758093     0.761510035779    12.000000000000
         H            1.810151209306     0.000127975007    -1.361478797121     1.007825032230
         H            0.854174051806    -2.143532635593    -0.480395547721     1.007825032230
         H           -0.173430529894    -1.301016954293    -1.640623872321     1.007825032230
         H           -0.173388502394     1.301362079607    -1.640571802621     1.007825032230
         H            0.854137687506     2.143620233807    -0.480077095521     1.007825032230
         H           -0.529549164594    -1.290507808493     1.387623878879     1.007825032230
         H           -1.529497377394    -2.143478060193     0.215292426579     1.007825032230
         H           -1.529569035594     2.143388699007     0.215291538379     1.007825032230
         H           -0.529629047494     1.290490208207     1.387695848679     1.007825032230
         H           -2.212454561894    -0.000007610693    -0.805077045621     1.007825032230
         H           -2.586714301294    -0.000057864993     0.920868129279     1.007825032230
         H            2.589258899706    -0.881704066793     0.791731427279     1.007825032230
         H            2.588291863506     0.882079302307     0.792442339279     1.007825032230
         H            1.329407712106    -0.000601057393     1.651059789179     1.007825032230

  Nuclear repulsion =  334.576347488425768

  ==> Basis Set <==

  Basis Set: DEF2-TZVP
    Blend: DEF2-TZVP
    Number of shells: 133
    Number of basis function: 301
    Number of Cartesian functions: 336
    Spherical Harmonics?: true
    Max angular momentum: 3

  ==> DFJKGrad: Density-Fitted SCF Gradients <==

    Gradient:                    1
    J tasked:                  Yes
    K tasked:                  Yes
    wK tasked:                  No
    OpenMP threads:              4
    Integrals threads:           4
    Memory [MiB]:             5722
    Schwarz Cutoff:          0E+00
    Fitting Condition:       1E-10

   => Auxiliary Basis Set <=

  Basis Set: (DEF2-TZVP AUX)
    Blend: DEF2-TZVP-JKFIT
    Number of shells: 259
    Number of basis function: 777
    Number of Cartesian functions: 903
    Spherical Harmonics?: true
    Max angular momentum: 4

  ==> DFT Potential <==

   => Composite Functional: PBE0 <= 

    PBE0 Hyb-GGA Exchange-Correlation Functional

    C. Adamo and V. Barone, J. Chem. Phys. 110, 6158 (1999)
    M. Ernzerhof and G. E. Scuseria, J. Chem. Phys. 110, 5029 (1999)

    Deriv               =              1
    GGA                 =           TRUE
    Meta                =          FALSE

    Exchange Hybrid     =           TRUE
    MP2 Hybrid          =          FALSE

   => Exchange Functionals <=

    0.7500   Perdew, Burke & Ernzerhof

   => Exact (HF) Exchange <=

    0.2500               HF 

   => Correlation Functionals <=

    1.0000   Perdew, Burke & Ernzerhof

   => Molecular Quadrature <=

    Radial Scheme          =       TREUTLER
    Pruning Scheme         =           FLAT
    Nuclear Scheme         =       TREUTLER

    BS radius alpha        =              1
    Pruning alpha          =              1
    Radial Points          =             75
    Spherical Points       =            302
    Total Points           =         472035
    Total Blocks           =           3425
    Max Points             =            256
    Max Functions          =            292


  -Total Gradient:
     Atom            X                  Y                   Z
    ------   -----------------  -----------------  -----------------
       1        0.000464865244     0.000009563864    -0.000099519943
       2       -0.001211843645    -0.002526039823    -0.004867877558
       3       -0.001217770702     0.002534678955    -0.004896669446
       4        0.001896272220    -0.002038876358     0.007693501546
       5        0.001906249142     0.002028899943     0.007699563679
       6       -0.005242286658    -0.000000921970    -0.006959745730
       7        0.003021802376     0.000003242011     0.007421929714
       8        0.000347164181     0.000003562740    -0.000356930486
       9       -0.000888641788     0.001760056917     0.001583993127
      10        0.000379666809     0.001364518346     0.001969935726
      11        0.000374842990    -0.001354560973     0.001962818953
      12       -0.000890254421    -0.001762648836     0.001588055098
      13        0.000211212353     0.001200316055    -0.002523498246
      14        0.000047997712     0.001584880967    -0.001598071875
      15        0.000052669634    -0.001587635071    -0.001605237369
      16        0.000209040732    -0.001197893029    -0.002521358721
      17        0.002064158252     0.000001162504     0.001654682065
      18        0.002197357807    -0.000000464868     0.000570921699
      19       -0.002194561672     0.002269606727    -0.001376565010
      20       -0.002242307198    -0.002308014293    -0.001371003665
      21        0.000711538537     0.000016591944    -0.004014875536


*** tstop() called on thinkpad at Sat Jul 10 12:50:51 2021
Module time:
	user time   =      46.70 seconds =       0.78 minutes
	system time =       0.52 seconds =       0.01 minutes
	total time  =         13 seconds =       0.22 minutes
Total time:
	user time   =     193.40 seconds =       3.22 minutes
	system time =       2.91 seconds =       0.05 minutes
	total time  =         56 seconds =       0.93 minutes

			-----------------------------------------
			 OPTKING 2.0: for geometry optimizations 
			  - R.A. King,  Bethel University        
			-----------------------------------------

	Internal coordinates to be generated automatically.
	Detected frag 1 with atoms:  1 2 3 4 5 6 7 8 9 10 11 12 13 14 15 16 17 18 19 20
	 21
	---Fragment 1 Bond Connectivity---
	 1 : 2 3 7 8
	 2 : 1 4 9 10
	 3 : 1 5 11 12
	 4 : 2 6 13 14
	 5 : 3 6 15 16
	 6 : 4 5 17 18
	 7 : 1 19 20 21
	 8 : 1
	 9 : 2
	 10 : 2
	 11 : 3
	 12 : 3
	 13 : 4
	 14 : 4
	 15 : 5
	 16 : 5
	 17 : 6
	 18 : 6
	 19 : 7
	 20 : 7
	 21 : 7

	---Fragment 1 Geometry and Gradient---
	 C           2.1018277348        0.0001073406       -0.9722582892
	 C           0.4503286219       -2.3689885477       -1.1887819423
	 C           0.4502981160        2.3692090487       -1.1886423188
	 C          -1.7329155718       -2.3655143388        0.6956989896
	 C          -1.7329781155        2.3654196518        0.6958001604
	 C          -3.3462038935       -0.0000666404        0.3677639070
	 C           3.6888352426       -0.0001922949        1.4390454094
	 H           3.4206900313        0.0002418377       -2.5728220522
	 H           1.6141550214       -4.0506896223       -0.9078160171
	 H          -0.3277362033       -2.4585657282       -3.1003297936
	 H          -0.3276567828        2.4592179205       -3.1002313961
	 H           1.6140863028        4.0508551589       -0.9072142296
	 H          -1.0007028910       -2.4387063208        2.6222290962
	 H          -2.8903311529       -4.0505864897        0.4068437231
	 H          -2.8904665673        4.0504176215        0.4068420447
	 H          -1.0008538479        2.4386730611        2.6223650994
	 H          -4.1809331870       -0.0000143821       -1.5213751261
	 H          -4.8881815943       -0.0001093490        1.7401885620
	 H           4.8929901883       -1.6661792099        1.4961555625
	 H           4.8911627548        1.6668883023        1.4974989915
	 H           2.5122164850       -0.0011358339        3.1200508183
	             0.0004648652        0.0000095639       -0.0000995199
	            -0.0012118436       -0.0025260398       -0.0048678776
	            -0.0012177707        0.0025346790       -0.0048966694
	             0.0018962722       -0.0020388764        0.0076935015
	             0.0019062491        0.0020288999        0.0076995637
	            -0.0052422867       -0.0000009220       -0.0069597457
	             0.0030218024        0.0000032420        0.0074219297
	             0.0003471642        0.0000035627       -0.0003569305
	            -0.0008886418        0.0017600569        0.0015839931
	             0.0003796668        0.0013645183        0.0019699357
	             0.0003748430       -0.0013545610        0.0019628190
	            -0.0008902544       -0.0017626488        0.0015880551
	             0.0002112124        0.0012003161       -0.0025234982
	             0.0000479977        0.0015848810       -0.0015980719
	             0.0000526696       -0.0015876351       -0.0016052374
	             0.0002090407       -0.0011978930       -0.0025213587
	             0.0020641583        0.0000011625        0.0016546821
	             0.0021973578       -0.0000004649        0.0005709217
	            -0.0021945617        0.0022696067       -0.0013765650
	            -0.0022423072       -0.0023080143       -0.0013710037
	             0.0007115385        0.0000165919       -0.0040148755

	Previous optimization step data not found.  Starting new optimization.

	---Fragment 1 Intrafragment Coordinates---
	 - Coordinate -           - BOHR/RAD -       - ANG/DEG -
	 R(1,2)           =         2.896023	       1.532509
	 R(1,3)           =         2.896034	       1.532515
	 R(1,7)           =         2.886690	       1.527570
	 R(1,8)           =         2.073934	       1.097479
	 R(2,4)           =         2.884066	       1.526182
	 R(2,9)           =         2.064353	       1.092408
	 R(2,10)          =         2.065774	       1.093161
	 R(3,5)           =         2.884065	       1.526182
	 R(3,11)          =         2.065790	       1.093169
	 R(3,12)          =         2.064349	       1.092407
	 R(4,6)           =         2.881941	       1.525057
	 R(4,13)          =         2.062283	       1.091313
	 R(4,14)          =         2.064586	       1.092532
	 R(5,6)           =         2.881949	       1.525062
	 R(5,15)          =         2.064581	       1.092529
	 R(5,16)          =         2.062286	       1.091315
	 R(6,17)          =         2.065338	       1.092930
	 R(6,18)          =         2.064278	       1.092369
	 R(7,19)          =         2.056396	       1.088198
	 R(7,20)          =         2.056250	       1.088121
	 R(7,21)          =         2.051880	       1.085808
	 B(1,2,4)         =         1.962597	     112.448524
	 B(1,2,9)         =         1.912126	     109.556762
	 B(1,2,10)        =         1.895939	     108.629328
	 B(1,3,5)         =         1.962549	     112.445791
	 B(1,3,11)        =         1.896043	     108.635244
	 B(1,3,12)        =         1.912098	     109.555151
	 B(1,7,19)        =         1.923256	     110.194457
	 B(1,7,20)        =         1.923164	     110.189162
	 B(1,7,21)        =         1.948815	     111.658879
	 B(2,1,3)         =         1.916028	     109.780315
	 B(2,1,7)         =         1.956144	     112.078783
	 B(2,1,8)         =         1.880731	     107.757963
	 B(2,4,6)         =         1.928796	     110.511862
	 B(2,4,13)        =         1.919397	     109.973372
	 B(2,4,14)        =         1.909195	     109.388811
	 B(3,1,7)         =         1.956288	     112.087057
	 B(3,1,8)         =         1.880665	     107.754147
	 B(3,5,6)         =         1.928857	     110.515358
	 B(3,5,15)        =         1.909104	     109.383589
	 B(3,5,16)        =         1.919422	     109.974755
	 B(4,2,9)         =         1.916466	     109.805432
	 B(4,2,10)        =         1.896061	     108.636289
	 B(4,6,5)         =         1.925580	     110.327585
	 B(4,6,17)        =         1.907470	     109.289966
	 B(4,6,18)        =         1.920357	     110.028349
	 B(5,3,11)        =         1.896103	     108.638675
	 B(5,3,12)        =         1.916400	     109.801619
	 B(5,6,17)        =         1.907449	     109.288804
	 B(5,6,18)        =         1.920350	     110.027949
	 B(6,4,13)        =         1.911535	     109.522896
	 B(6,4,14)        =         1.917887	     109.886847
	 B(6,5,15)        =         1.917848	     109.884603
	 B(6,5,16)        =         1.911563	     109.524504
	 B(7,1,8)         =         1.870303	     107.160480
	 B(9,2,10)        =         1.878594	     107.635490
	 B(11,3,12)       =         1.878596	     107.635614
	 B(13,4,14)       =         1.876302	     107.504171
	 B(15,5,16)       =         1.876317	     107.505051
	 B(17,6,18)       =         1.882021	     107.831846
	 B(19,7,20)       =         1.889818	     108.278616
	 B(19,7,21)       =         1.888787	     108.219538
	 B(20,7,21)       =         1.888495	     108.202805
	 D(1,2,4,6)       =         0.986477	      56.520971
	 D(1,2,4,13)      =        -1.126041	     -64.517385
	 D(1,2,4,14)      =         3.100257	     177.631616
	 D(1,3,5,6)       =        -0.986439	     -56.518793
	 D(1,3,5,15)      =        -3.100150	    -177.625483
	 D(1,3,5,16)      =         1.126169	      64.524749
	 D(2,1,3,5)       =         0.939733	      53.842759
	 D(2,1,3,11)      =        -1.159561	     -66.437949
	 D(2,1,3,12)      =         3.075871	     176.234452
	 D(2,1,7,19)      =         1.018212	      58.339257
	 D(2,1,7,20)      =         3.102602	     177.765985
	 D(2,1,7,21)      =        -1.081401	     -61.959716
	 D(2,4,6,5)       =        -1.005973	     -57.638021
	 D(2,4,6,17)      =         1.091753	      62.552813
	 D(2,4,6,18)      =        -3.128048	    -179.223959
	 D(3,1,2,4)       =        -0.939782	     -53.845521
	 D(3,1,2,9)       =        -3.076057	    -176.245110
	 D(3,1,2,10)      =         1.159421	      66.429929
	 D(3,1,7,19)      =        -3.101336	    -177.693473
	 D(3,1,7,20)      =        -1.016947	     -58.266745
	 D(3,1,7,21)      =         1.082236	      62.007554
	 D(3,5,6,4)       =         1.005988	      57.638867
	 D(3,5,6,17)      =        -1.091750	     -62.552667
	 D(3,5,6,18)      =         3.128067	     179.225041
	 D(4,2,1,7)       =         1.246177	      71.400679
	 D(4,2,1,8)       =        -2.983445	    -170.938814
	 D(4,6,5,15)      =         3.114498	     178.447586
	 D(4,6,5,16)      =        -1.111283	     -63.671838
	 D(5,3,1,7)       =        -1.246142	     -71.398689
	 D(5,3,1,8)       =         2.983439	     170.938441
	 D(5,6,4,13)      =         1.111210	      63.667663
	 D(5,6,4,14)      =        -3.114583	    -178.452462
	 D(6,4,2,9)       =         3.120300	     178.780024
	 D(6,4,2,10)      =        -1.112655	     -63.750458
	 D(6,5,3,11)      =         1.112821	      63.759934
	 D(6,5,3,12)      =        -3.120146	    -178.771175
	 D(7,1,2,9)       =        -0.890099	     -50.998910
	 D(7,1,2,10)      =        -2.937806	    -168.323871
	 D(7,1,3,11)      =         2.937749	     168.320602
	 D(7,1,3,12)      =         0.889996	      50.993004
	 D(8,1,2,9)       =         1.163464	      66.661597
	 D(8,1,2,10)      =        -0.884243	     -50.663364
	 D(8,1,3,11)      =         0.884144	      50.657732
	 D(8,1,3,12)      =        -1.163609	     -66.669866
	 D(8,1,7,19)      =        -1.041562	     -59.677092
	 D(8,1,7,20)      =         1.042828	      59.749635
	 D(8,1,7,21)      =        -3.141175	    -179.976066
	 D(9,2,4,13)      =         1.007782	      57.741668
	 D(9,2,4,14)      =        -1.049106	     -60.109331
	 D(10,2,4,13)     =         3.058012	     175.211186
	 D(10,2,4,14)     =         1.001124	      57.360187
	 D(11,3,5,15)     =        -1.000890	     -57.346757
	 D(11,3,5,16)     =        -3.057756	    -175.196525
	 D(12,3,5,15)     =         1.049329	      60.122134
	 D(12,3,5,16)     =        -1.007537	     -57.727634
	 D(13,4,6,17)     =        -3.074249	    -176.141502
	 D(13,4,6,18)     =        -1.010865	     -57.918274
	 D(14,4,6,17)     =        -1.016857	     -58.261627
	 D(14,4,6,18)     =         1.046527	      59.961600
	 D(15,5,6,17)     =         1.016760	      58.256053
	 D(15,5,6,18)     =        -1.046608	     -59.966239
	 D(16,5,6,17)     =         3.074164	     176.136629
	 D(16,5,6,18)     =         1.010796	      57.914337
	 R(6,7)           =         7.116138	       3.765698

	Current energy   :      -274.9436247654

	Generating empirical Hessian (Schlegel '84) for each fragment.
	Taking RFO optimization step.
	Going to follow RFO solution 1.
	Using RFO vector 1.
	Norm of target step-size    0.21748
	Projected energy change by RFO approximation:        -0.0007793181

	Back-transformation to cartesian coordinates...
	Could not converge backtransformation.
	Using first guess instead.

	--- Internal Coordinate Step in ANG or DEG, aJ/ANG or AJ/DEG ---
	 ---------------------------------------------------------------------------
	   Coordinate                Previous        Force       Change         New 
	   ----------                --------       ------       ------       ------
	    1 R(1,2)          =      1.532509     0.002611    -0.000097     1.532412
	    2 R(1,3)          =      1.532515     0.002548    -0.000117     1.532399
	    3 R(1,7)          =      1.527570    -0.004159    -0.000617     1.526954
	    4 R(1,8)          =      1.097479    -0.004068    -0.000733     1.096746
	    5 R(2,4)          =      1.526182     0.002620     0.000873     1.527055
	    6 R(2,9)          =      1.092408     0.014155     0.002637     1.095045
	    7 R(2,10)         =      1.093161     0.016707     0.003231     1.096392
	    8 R(3,5)          =      1.526182     0.002635     0.000872     1.527054
	    9 R(3,11)         =      1.093169     0.016637     0.003215     1.096384
	   10 R(3,12)         =      1.092407     0.014172     0.002641     1.095047
	   11 R(4,6)          =      1.525057    -0.000608     0.000912     1.525970
	   12 R(4,13)         =      1.091313     0.019152     0.004003     1.095316
	   13 R(4,14)         =      1.092532     0.009035     0.001728     1.094260
	   14 R(5,6)          =      1.525062    -0.000614     0.000903     1.525965
	   15 R(5,15)         =      1.092529     0.009066     0.001731     1.094260
	   16 R(5,16)         =      1.091315     0.019142     0.003995     1.095310
	   17 R(6,17)         =      1.092930     0.019335     0.003881     1.096811
	   18 R(6,18)         =      1.092369     0.010400     0.001937     1.094306
	   19 R(7,19)         =      1.088198     0.026055     0.004770     1.092968
	   20 R(7,20)         =      1.088121     0.026543     0.004862     1.092983
	   21 R(7,21)         =      1.085808     0.030417     0.005860     1.091668
	   22 B(1,2,4)        =    112.448524     0.000013     0.529058   112.977582
	   23 B(1,2,9)        =    109.556762     0.000006     0.206242   109.763004
	   24 B(1,2,10)       =    108.629328     0.000011    -0.051640   108.577688
	   25 B(1,3,5)        =    112.445791     0.000014     0.531190   112.976982
	   26 B(1,3,11)       =    108.635244     0.000010    -0.058642   108.576602
	   27 B(1,3,12)       =    109.555151     0.000006     0.208422   109.763573
	   28 B(1,7,19)       =    110.194457     0.000095     0.449444   110.643900
	   29 B(1,7,20)       =    110.189162     0.000096     0.458531   110.647693
	   30 B(1,7,21)       =    111.658879     0.000138     0.625423   112.284303
	   31 B(2,1,3)        =    109.780315     0.000008     0.363194   110.143509
	   32 B(2,1,7)        =    112.078783     0.000013     0.294225   112.373007
	   33 B(2,1,8)        =    107.757963    -0.000010    -0.336378   107.421585
	   34 B(2,4,6)        =    110.511862     0.000011     0.764152   111.276014
	   35 B(2,4,13)       =    109.973372     0.000011    -0.065962   109.907410
	   36 B(2,4,14)       =    109.388811     0.000024     0.283492   109.672303
	   37 B(3,1,7)        =    112.087057     0.000011     0.285676   112.372734
	   38 B(3,1,8)        =    107.754147    -0.000009    -0.331585   107.422561
	   39 B(3,5,6)        =    110.515358     0.000011     0.759948   111.275306
	   40 B(3,5,15)       =    109.383589     0.000025     0.289358   109.672947
	   41 B(3,5,16)       =    109.974755     0.000011    -0.068247   109.906507
	   42 B(4,2,9)        =    109.805432     0.000049     0.515357   110.320789
	   43 B(4,2,10)       =    108.636289    -0.000022    -0.283207   108.353082
	   44 B(4,6,5)        =    110.327585     0.000061     1.034726   111.362311
	   45 B(4,6,17)       =    109.289966    -0.000033    -0.414891   108.875075
	   46 B(4,6,18)       =    110.028349     0.000028     0.395170   110.423520
	   47 B(5,3,11)       =    108.638675    -0.000023    -0.284983   108.353693
	   48 B(5,3,12)       =    109.801619     0.000049     0.519086   110.320704
	   49 B(5,6,17)       =    109.288804    -0.000033    -0.414083   108.874721
	   50 B(5,6,18)       =    110.027949     0.000028     0.394972   110.422921
	   51 B(6,4,13)       =    109.522896    -0.000030    -0.371349   109.151547
	   52 B(6,4,14)       =    109.886847     0.000051     0.455259   110.342106
	   53 B(6,5,15)       =    109.884603     0.000051     0.456981   110.341584
	   54 B(6,5,16)       =    109.524504    -0.000029    -0.372184   109.152320
	   55 B(7,1,8)        =    107.160480    -0.000015    -0.357183   106.803296
	   56 B(9,2,10)       =    107.635490    -0.000062    -1.012574   106.622916
	   57 B(11,3,12)      =    107.635614    -0.000062    -1.012053   106.623561
	   58 B(13,4,14)      =    107.504171    -0.000070    -1.134775   106.369396
	   59 B(15,5,16)      =    107.505051    -0.000070    -1.134879   106.370171
	   60 B(17,6,18)      =    107.831846    -0.000054    -1.085070   106.746776
	   61 B(19,7,20)      =    108.278616    -0.000094    -0.412531   107.866085
	   62 B(19,7,21)      =    108.219538    -0.000125    -0.606882   107.612656
	   63 B(20,7,21)      =    108.202805    -0.000124    -0.593263   107.609543
	   64 D(1,2,4,6)      =     56.520971    -0.000014    -1.864278    54.656693
	   65 D(1,2,4,13)     =    -64.517385    -0.000009    -1.853906   -66.371291
	   66 D(1,2,4,14)     =    177.631616     0.000006    -0.604717   177.026899
	   67 D(1,3,5,6)      =    -56.518793     0.000014     1.858248   -54.660544
	   68 D(1,3,5,15)     =   -177.625483    -0.000006     0.595425  -177.030059
	   69 D(1,3,5,16)     =     64.524749     0.000009     1.842591    66.367339
	   70 D(2,1,3,5)      =     53.842759    -0.000004    -0.873976    52.968783
	   71 D(2,1,3,11)     =    -66.437949    -0.000002    -0.812856   -67.250805
	   72 D(2,1,3,12)     =    176.234452     0.000013     0.318102   176.552554
	   73 D(2,1,7,19)     =     58.339257    -0.000004    -0.534878    57.804379
	   74 D(2,1,7,20)     =    177.765985    -0.000003    -0.468589   177.297396
	   75 D(2,1,7,21)     =    -61.959716    -0.000003    -0.490064   -62.449780
	   76 D(2,4,6,5)      =    -57.638021     0.000018     2.762540   -54.875481
	   77 D(2,4,6,17)     =     62.552813     0.000012     2.626785    65.179598
	   78 D(2,4,6,18)     =   -179.223959    -0.000004     1.291790  -177.932169
	   79 D(3,1,2,4)      =    -53.845521     0.000005     0.878570   -52.966951
	   80 D(3,1,2,9)      =   -176.245110    -0.000013    -0.305725  -176.550834
	   81 D(3,1,2,10)     =     66.429929     0.000002     0.823067    67.252996
	   82 D(3,1,7,19)     =   -177.693473     0.000003     0.397945  -177.295528
	   83 D(3,1,7,20)     =    -58.266745     0.000004     0.464234   -57.802511
	   84 D(3,1,7,21)     =     62.007554     0.000003     0.442759    62.450313
	   85 D(3,5,6,4)      =     57.638867    -0.000018    -2.761642    54.877225
	   86 D(3,5,6,17)     =    -62.552667    -0.000012    -2.625397   -65.178064
	   87 D(3,5,6,18)     =    179.225041     0.000003    -1.290787   177.934255
	   88 D(4,2,1,7)      =     71.400679     0.000011     1.748073    73.148752
	   89 D(4,2,1,8)      =   -170.938814     0.000007     1.269222  -169.669592
	   90 D(4,6,5,15)     =    178.447586    -0.000001    -1.587817   176.859769
	   91 D(4,6,5,16)     =    -63.671838    -0.000018    -2.919693   -66.591531
	   92 D(5,3,1,7)      =    -71.398689    -0.000011    -1.748385   -73.147074
	   93 D(5,3,1,8)      =    170.938441    -0.000007    -1.267626   169.670815
	   94 D(5,6,4,13)     =     63.667663     0.000018     2.926682    66.594345
	   95 D(5,6,4,14)     =   -178.452462     0.000001     1.594413  -176.858049
	   96 D(6,4,2,9)      =    178.780024    -0.000002    -0.847693   177.932331
	   97 D(6,4,2,10)     =    -63.750458    -0.000016    -1.941226   -65.691685
	   98 D(6,5,3,11)     =     63.759934     0.000016     1.926573    65.686507
	   99 D(6,5,3,12)     =   -178.771175     0.000002     0.834747  -177.936428
	  100 D(7,1,2,9)      =    -50.998910    -0.000006     0.563778   -50.435132
	  101 D(7,1,2,10)     =   -168.323871     0.000008     1.692570  -166.631301
	  102 D(7,1,3,11)     =    168.320602    -0.000009    -1.687265   166.633337
	  103 D(7,1,3,12)     =     50.993004     0.000006    -0.556307    50.436696
	  104 D(8,1,2,9)      =     66.661597    -0.000010     0.084927    66.746524
	  105 D(8,1,2,10)     =    -50.663364     0.000005     1.213719   -49.449645
	  106 D(8,1,3,11)     =     50.657732    -0.000005    -1.206506    49.451226
	  107 D(8,1,3,12)     =    -66.669866     0.000010    -0.075548   -66.745415
	  108 D(8,1,7,19)     =    -59.677092    -0.000001    -0.067964   -59.745057
	  109 D(8,1,7,20)     =     59.749635     0.000000    -0.001676    59.747960
	  110 D(8,1,7,21)     =   -179.976066     0.000000    -0.023934  -180.000000
	  111 D(9,2,4,13)     =     57.741668     0.000003    -0.837320    56.904347
	  112 D(9,2,4,14)     =    -60.109331     0.000018     0.411868   -59.697463
	  113 D(10,2,4,13)    =    175.211186    -0.000011    -1.930854   173.280332
	  114 D(10,2,4,14)    =     57.360187     0.000004    -0.681666    56.678521
	  115 D(11,3,5,15)    =    -57.346757    -0.000004     0.663749   -56.683007
	  116 D(11,3,5,16)    =   -175.196525     0.000010     1.910915  -173.285609
	  117 D(12,3,5,15)    =     60.122134    -0.000018    -0.428077    59.694058
	  118 D(12,3,5,16)    =    -57.727634    -0.000003     0.819090   -56.908544
	  119 D(13,4,6,17)    =   -176.141502     0.000013     2.790927  -173.350575
	  120 D(13,4,6,18)    =    -57.918274    -0.000003     1.455932   -56.462342
	  121 D(14,4,6,17)    =    -58.261627    -0.000004     1.458658   -56.802970
	  122 D(14,4,6,18)    =     59.961600    -0.000020     0.123663    60.085263
	  123 D(15,5,6,17)    =     58.256053     0.000004    -1.451572    56.804481
	  124 D(15,5,6,18)    =    -59.966239     0.000020    -0.116962   -60.083201
	  125 D(16,5,6,17)    =    176.136629    -0.000013    -2.783449   173.353180
	  126 D(16,5,6,18)    =     57.914337     0.000003    -1.448838    56.465499
	  127 R(6,7)          =      3.765698     0.003994     0.022298     3.787996
	 ---------------------------------------------------------------------------
	Successfully symmetrized geometry.

  ==> Convergence Check <==

  Measures of convergence in internal coordinates in au.
  Criteria marked as inactive (o), active & met (*), and active & unmet ( ).
  --------------------------------------------------------------------------------------------- ~
   Step     Total Energy     Delta E     MAX Force     RMS Force      MAX Disp      RMS Disp    ~
  --------------------------------------------------------------------------------------------- ~
    Convergence Criteria    1.00e-06 *    3.00e-04 *             o    1.20e-03 *             o  ~
  --------------------------------------------------------------------------------------------- ~
      1    -274.94362477   -2.75e+02      3.69e-03      9.33e-04 o    5.11e-02      1.93e-02 o  ~
  ---------------------------------------------------------------------------------------------

	Writing optimization data to binary file.
	Structure for next step:
	Cartesian Geometry (in Angstrom)
	    C     1.1129295944   0.0000732755  -0.5071315827
	    C     0.2431029140  -1.2563234826  -0.6218265164
	    C     0.2430363417   1.2564218417  -0.6216721075
	    C    -0.9301578464  -1.2603578689   0.3555876221
	    C    -0.9301937177   1.2602739801   0.3557782995
	    C    -1.7778092768  -0.0000397737   0.2083845372
	    C     1.9703402044   0.0000255344   0.7563697010
	    H     1.8036684746   0.0001347817  -1.3590301759
	    H     0.8610051389  -2.1488561842  -0.4779295273
	    H    -0.1566033409  -1.3125775700  -1.6412109985
	    H    -0.1566924770   1.3127378631  -1.6410365065
	    H     0.8608839081   2.1489825183  -0.4776976270
	    H    -0.5586731263  -1.3254804549   1.3839239835
	    H    -1.5428522239  -2.1521191777   0.1919677677
	    H    -1.5429265017   2.1520398417   0.1923220852
	    H    -0.5586644893   1.3252362608   1.3841020150
	    H    -2.2440624042   0.0000332947  -0.7843904901
	    H    -2.5922668056  -0.0000993939   0.9392504115
	    H     2.6131506853  -0.8834371730   0.7858074075
	    H     2.6131094325   0.8835315556   0.7859906786
	    H     1.3669356472  -0.0000508720   1.6661185206
			--------------------------
			 OPTKING Finished Execution 
			--------------------------

    Structure for next step:
    Molecular point group: c1
    Full point group: C1

    Geometry (in Angstrom), charge = 0, multiplicity = 1:

    C            1.113469968743     0.000063511281    -0.507758298196
    C            0.243643284873    -1.256333251724    -0.622453232352
    C            0.243576712547     1.256412082505    -0.622298823492
    C           -0.929617480142    -1.260367638010     0.354960910010
    C           -0.929653351384     1.260264220923     0.355151587412
    C           -1.777268913825    -0.000049537841     0.207757824533
    C            1.970880582064     0.000015770241     0.755742990407
    H            1.804208851607     0.000125017573    -1.359656894773
    H            0.861545512215    -2.148865956862    -0.478556242666
    H           -0.156062971602    -1.312587339291    -1.641837718467
    H           -0.156152107650     1.312728104112    -1.641663226448
    H            0.861424281439     2.148972762596    -0.478324342387
    H           -0.558132758542    -1.325490224241     1.383297275447
    H           -1.542311860083    -2.152128950372     0.191341054916
    H           -1.542386137792     2.152030086033     0.191695372435
    H           -0.558124121529     1.325226501807     1.383475306893
    H           -2.243522043042     0.000023530572    -0.785017206715
    H           -2.591726445872    -0.000109158044     0.938623701698
    H            2.613691065460    -0.883446940648     0.785180697034
    H            2.613649812677     0.883521794915     0.785363968209
    H            1.367476022473    -0.000060636137     1.665491813590

gradient() will perform analytic gradient computation.

*** tstart() called on thinkpad
*** at Sat Jul 10 12:50:51 2021

   => Loading Basis Set <=

    Name: DEF2-TZVP
    Role: ORBITAL
    Keyword: BASIS
    atoms 1-7  entry C          line   123 file /usr/share/psi4/basis/def2-tzvp.gbs 
    atoms 8-21 entry H          line    15 file /usr/share/psi4/basis/def2-tzvp.gbs 


         ---------------------------------------------------------
                                   SCF
               by Justin Turney, Rob Parrish, Andy Simmonett
                          and Daniel G. A. Smith
                              RKS Reference
                        4 Threads,   7629 MiB Core
         ---------------------------------------------------------

  ==> Geometry <==

    Molecular point group: c1
    Full point group: C1

    Geometry (in Angstrom), charge = 0, multiplicity = 1:

       Center              X                  Y                   Z               Mass       
    ------------   -----------------  -----------------  -----------------  -----------------
         C            1.113469968743     0.000063511281    -0.507758298196    12.000000000000
         C            0.243643284873    -1.256333251724    -0.622453232352    12.000000000000
         C            0.243576712547     1.256412082505    -0.622298823492    12.000000000000
         C           -0.929617480142    -1.260367638010     0.354960910010    12.000000000000
         C           -0.929653351384     1.260264220923     0.355151587412    12.000000000000
         C           -1.777268913825    -0.000049537841     0.207757824533    12.000000000000
         C            1.970880582064     0.000015770241     0.755742990407    12.000000000000
         H            1.804208851607     0.000125017573    -1.359656894773     1.007825032230
         H            0.861545512215    -2.148865956862    -0.478556242666     1.007825032230
         H           -0.156062971602    -1.312587339291    -1.641837718467     1.007825032230
         H           -0.156152107650     1.312728104112    -1.641663226448     1.007825032230
         H            0.861424281439     2.148972762596    -0.478324342387     1.007825032230
         H           -0.558132758542    -1.325490224241     1.383297275447     1.007825032230
         H           -1.542311860083    -2.152128950372     0.191341054916     1.007825032230
         H           -1.542386137792     2.152030086033     0.191695372435     1.007825032230
         H           -0.558124121529     1.325226501807     1.383475306893     1.007825032230
         H           -2.243522043042     0.000023530572    -0.785017206715     1.007825032230
         H           -2.591726445872    -0.000109158044     0.938623701698     1.007825032230
         H            2.613691065460    -0.883446940648     0.785180697034     1.007825032230
         H            2.613649812677     0.883521794915     0.785363968209     1.007825032230
         H            1.367476022473    -0.000060636137     1.665491813590     1.007825032230

  Running in c1 symmetry.

  Rotational constants: A =      0.11779  B =      0.08457  C =      0.06418 [cm^-1]
  Rotational constants: A =   3531.17075  B =   2535.40278  C =   1923.93414 [MHz]
  Nuclear repulsion =  333.468310955289667

  Charge       = 0
  Multiplicity = 1
  Electrons    = 56
  Nalpha       = 28
  Nbeta        = 28

  ==> Algorithm <==

  SCF Algorithm Type is DF.
  DIIS enabled.
  MOM disabled.
  Fractional occupation disabled.
  Guess Type is READ.
  Energy threshold   = 1.00e-08
  Density threshold  = 1.00e-08
  Integral threshold = 0.00e+00

  ==> Primary Basis <==

  Basis Set: DEF2-TZVP
    Blend: DEF2-TZVP
    Number of shells: 133
    Number of basis function: 301
    Number of Cartesian functions: 336
    Spherical Harmonics?: true
    Max angular momentum: 3

  ==> DFT Potential <==

   => Composite Functional: PBE0 <= 

    PBE0 Hyb-GGA Exchange-Correlation Functional

    C. Adamo and V. Barone, J. Chem. Phys. 110, 6158 (1999)
    M. Ernzerhof and G. E. Scuseria, J. Chem. Phys. 110, 5029 (1999)

    Deriv               =              1
    GGA                 =           TRUE
    Meta                =          FALSE

    Exchange Hybrid     =           TRUE
    MP2 Hybrid          =          FALSE

   => Exchange Functionals <=

    0.7500   Perdew, Burke & Ernzerhof

   => Exact (HF) Exchange <=

    0.2500               HF 

   => Correlation Functionals <=

    1.0000   Perdew, Burke & Ernzerhof

   => Molecular Quadrature <=

    Radial Scheme          =       TREUTLER
    Pruning Scheme         =           FLAT
    Nuclear Scheme         =       TREUTLER

    BS radius alpha        =              1
    Pruning alpha          =              1
    Radial Points          =             75
    Spherical Points       =            302
    Total Points           =         472038
    Total Blocks           =           3450
    Max Points             =            256
    Max Functions          =            292

   => Loading Basis Set <=

    Name: (DEF2-TZVP AUX)
    Role: JKFIT
    Keyword: DF_BASIS_SCF
    atoms 1-7  entry C          line   203 file /usr/share/psi4/basis/def2-tzvp-jkfit.gbs 
    atoms 8-21 entry H          line    23 file /usr/share/psi4/basis/def2-tzvp-jkfit.gbs 

   => Loading Basis Set <=

    Name: DEF2-TZVP
    Role: ORBITAL
    Keyword: BASIS
    atoms 1-7  entry C          line   123 file /usr/share/psi4/basis/def2-tzvp.gbs 
    atoms 8-21 entry H          line    15 file /usr/share/psi4/basis/def2-tzvp.gbs 

  Reading orbitals from file 180, no projection.

  ==> Pre-Iterations <==

   -------------------------------------------------------
    Irrep   Nso     Nmo     Nalpha   Nbeta   Ndocc  Nsocc
   -------------------------------------------------------
     A        301     301       0       0       0       0
   -------------------------------------------------------
    Total     301     301      28      28      28       0
   -------------------------------------------------------

  ==> Integral Setup <==

  DFHelper Memory: AOs need 0.540 GiB; user supplied 2.577 GiB. Using in-core AOs.

  ==> MemDFJK: Density-Fitted J/K Matrices <==

    J tasked:                   Yes
    K tasked:                   Yes
    wK tasked:                   No
    OpenMP threads:               4
    Memory [MiB]:              2639
    Algorithm:                 Core
    Schwarz Cutoff:           1E-12
    Mask sparsity (%):       1.9227
    Fitting Condition:        1E-10

   => Auxiliary Basis Set <=

  Basis Set: (DEF2-TZVP AUX)
    Blend: DEF2-TZVP-JKFIT
    Number of shells: 259
    Number of basis function: 777
    Number of Cartesian functions: 903
    Spherical Harmonics?: true
    Max angular momentum: 4

  Cached 100.0% of DFT collocation blocks in 3.011 [GiB].

  Minimum eigenvalue in the overlap matrix is 1.0033020955E-04.
  Using Symmetric Orthogonalization.

  SCF Guess: Orbitals guess was supplied from a previous computation.

  ==> Iterations <==

                           Total Energy        Delta E     RMS |[F,P]|

   @DF-RKS iter   0:  -274.93165737544513   -2.74932e+02   1.63199e-04 
   @DF-RKS iter   1:  -274.94411294611285   -1.24556e-02   1.54419e-05 DIIS
   @DF-RKS iter   2:  -274.94412427567067   -1.13296e-05   1.12913e-05 DIIS
   @DF-RKS iter   3:  -274.94412978520012   -5.50953e-06   3.69484e-06 DIIS
   @DF-RKS iter   4:  -274.94413034409786   -5.58898e-07   8.77739e-07 DIIS
   @DF-RKS iter   5:  -274.94413037687741   -3.27796e-08   3.32572e-07 DIIS
   @DF-RKS iter   6:  -274.94413038172638   -4.84897e-09   8.27323e-08 DIIS
   @DF-RKS iter   7:  -274.94413038201560   -2.89219e-10   1.15294e-08 DIIS
   @DF-RKS iter   8:  -274.94413038202106   -5.45697e-12   3.73933e-09 DIIS
  Energy and wave function converged.


  ==> Post-Iterations <==

    Orbital Energies [Eh]
    ---------------------

    Doubly Occupied:                                                      

       1A    -10.217365     2A    -10.208954     3A    -10.208681  
       4A    -10.208572     5A    -10.208006     6A    -10.207993  
       7A    -10.202234     8A     -0.858417     9A     -0.780829  
      10A     -0.759572    11A     -0.695173    12A     -0.622576  
      13A     -0.609381    14A     -0.541831    15A     -0.497472  
      16A     -0.458970    17A     -0.458455    18A     -0.437160  
      19A     -0.411909    20A     -0.410142    21A     -0.384546  
      22A     -0.368598    23A     -0.363384    24A     -0.345565  
      25A     -0.341222    26A     -0.314914    27A     -0.301472  
      28A     -0.301142  

    Virtual:                                                              

      29A      0.038380    30A      0.059995    31A      0.073510  
      32A      0.081458    33A      0.101051    34A      0.102434  
      35A      0.107832    36A      0.119288    37A      0.121979  
      38A      0.124110    39A      0.139339    40A      0.146859  
      41A      0.167899    42A      0.170921    43A      0.173764  
      44A      0.199028    45A      0.199034    46A      0.222236  
      47A      0.223084    48A      0.230822    49A      0.239843  
      50A      0.244849    51A      0.254678    52A      0.255106  
      53A      0.275115    54A      0.279210    55A      0.298621  
      56A      0.304757    57A      0.324969    58A      0.330427  
      59A      0.372523    60A      0.403450    61A      0.404232  
      62A      0.413597    63A      0.417874    64A      0.423542  
      65A      0.435189    66A      0.435666    67A      0.442907  
      68A      0.452288    69A      0.454175    70A      0.458916  
      71A      0.462541    72A      0.473675    73A      0.474527  
      74A      0.480484    75A      0.480995    76A      0.499138  
      77A      0.499681    78A      0.507144    79A      0.514735  
      80A      0.522178    81A      0.523113    82A      0.539302  
      83A      0.590678    84A      0.614005    85A      0.631388  
      86A      0.658748    87A      0.666445    88A      0.731760  
      89A      0.743667    90A      0.765529    91A      0.766713  
      92A      0.780773    93A      0.794545    94A      0.802650  
      95A      0.816327    96A      0.853665    97A      0.854394  
      98A      0.887847    99A      0.910727   100A      0.921109  
     101A      0.935461   102A      0.952490   103A      0.968977  
     104A      1.005737   105A      1.027515   106A      1.043714  
     107A      1.049179   108A      1.060905   109A      1.115372  
     110A      1.118531   111A      1.137940   112A      1.162644  
     113A      1.175741   114A      1.186280   115A      1.188995  
     116A      1.200480   117A      1.250746   118A      1.257315  
     119A      1.262477   120A      1.277091   121A      1.296524  
     122A      1.314308   123A      1.316081   124A      1.328459  
     125A      1.435669   126A      1.437650   127A      1.493185  
     128A      1.542977   129A      1.556083   130A      1.569579  
     131A      1.583934   132A      1.593900   133A      1.607990  
     134A      1.616768   135A      1.637790   136A      1.637828  
     137A      1.651273   138A      1.657756   139A      1.673346  
     140A      1.689704   141A      1.697804   142A      1.724694  
     143A      1.753353   144A      1.768763   145A      1.781958  
     146A      1.793783   147A      1.833476   148A      1.842550  
     149A      1.886411   150A      1.888915   151A      1.904920  
     152A      1.912280   153A      1.938505   154A      1.974058  
     155A      1.991792   156A      2.015163   157A      2.017201  
     158A      2.051181   159A      2.086896   160A      2.126948  
     161A      2.133853   162A      2.138316   163A      2.167724  
     164A      2.179816   165A      2.205908   166A      2.236051  
     167A      2.251402   168A      2.258669   169A      2.303812  
     170A      2.340475   171A      2.350248   172A      2.376928  
     173A      2.423990   174A      2.439520   175A      2.442070  
     176A      2.463067   177A      2.474905   178A      2.507439  
     179A      2.522936   180A      2.531335   181A      2.540177  
     182A      2.549986   183A      2.557751   184A      2.575829  
     185A      2.603709   186A      2.620816   187A      2.624645  
     188A      2.633188   189A      2.636740   190A      2.644741  
     191A      2.666781   192A      2.675407   193A      2.676911  
     194A      2.699644   195A      2.720599   196A      2.731215  
     197A      2.752527   198A      2.774765   199A      2.788633  
     200A      2.797250   201A      2.818412   202A      2.838560  
     203A      2.859110   204A      2.859972   205A      2.873070  
     206A      2.874680   207A      2.905530   208A      2.942898  
     209A      2.961951   210A      2.975713   211A      3.020102  
     212A      3.040969   213A      3.052756   214A      3.096097  
     215A      3.100972   216A      3.140245   217A      3.150027  
     218A      3.160240   219A      3.184916   220A      3.202173  
     221A      3.225856   222A      3.234807   223A      3.258088  
     224A      3.285951   225A      3.286518   226A      3.306309  
     227A      3.319806   228A      3.333785   229A      3.356570  
     230A      3.367727   231A      3.381347   232A      3.413254  
     233A      3.426207   234A      3.427526   235A      3.438821  
     236A      3.469540   237A      3.482183   238A      3.506034  
     239A      3.511091   240A      3.521424   241A      3.534819  
     242A      3.558927   243A      3.588531   244A      3.600938  
     245A      3.603585   246A      3.609414   247A      3.622833  
     248A      3.641864   249A      3.673197   250A      3.681879  
     251A      3.692103   252A      3.764833   253A      3.785864  
     254A      3.831537   255A      3.908187   256A      3.927093  
     257A      3.947044   258A      3.986878   259A      3.991861  
     260A      4.032543   261A      4.048806   262A      4.064990  
     263A      4.080429   264A      4.084357   265A      4.107403  
     266A      4.117621   267A      4.157112   268A      4.193098  
     269A      4.196927   270A      4.235152   271A      4.269998  
     272A      4.284387   273A      4.330366   274A      4.364818  
     275A      4.393796   276A      4.429417   277A      4.444326  
     278A      4.462084   279A      4.522406   280A      4.541564  
     281A      4.558321   282A      4.633741   283A      4.651158  
     284A      4.702442   285A      4.782613   286A      4.787694  
     287A      4.853199   288A      4.880880   289A      4.918755  
     290A      4.932025   291A      5.019635   292A      5.061708  
     293A      5.095153   294A      5.100956   295A     22.493592  
     296A     22.530727   297A     22.577684   298A     22.606363  
     299A     22.643668   300A     22.707037   301A     22.748769  

    Final Occupation by Irrep:
              A 
    DOCC [    28 ]

  @DF-RKS Final Energy:  -274.94413038202106

   => Energetics <=

    Nuclear Repulsion Energy =            333.4683109552896667
    One-Electron Energy =               -1030.0475909157141814
    Two-Electron Energy =                 454.2988361277005538
    DFT Exchange-Correlation Energy =     -32.6636865492971395
    Empirical Dispersion Energy =           0.0000000000000000
    VV10 Nonlocal Energy =                  0.0000000000000000
    Total Energy =                       -274.9441303820211147

Computation Completed


Properties will be evaluated at   0.000000,   0.000000,   0.000000 [a0]

Properties computed using the SCF density matrix

  Nuclear Dipole Moment: [e a0]
     X:     0.7252      Y:    -0.0001      Z:     0.8807

  Electronic Dipole Moment: [e a0]
     X:    -0.7282      Y:     0.0001      Z:    -0.9120

  Dipole Moment: [e a0]
     X:    -0.0030      Y:    -0.0000      Z:    -0.0314     Total:     0.0315

  Dipole Moment: [D]
     X:    -0.0076      Y:    -0.0000      Z:    -0.0798     Total:     0.0801


*** tstop() called on thinkpad at Sat Jul 10 12:51:21 2021
Module time:
	user time   =     102.98 seconds =       1.72 minutes
	system time =       0.71 seconds =       0.01 minutes
	total time  =         30 seconds =       0.50 minutes
Total time:
	user time   =     297.27 seconds =       4.95 minutes
	system time =       3.65 seconds =       0.06 minutes
	total time  =         86 seconds =       1.43 minutes

*** tstart() called on thinkpad
*** at Sat Jul 10 12:51:21 2021


         ------------------------------------------------------------
                                   SCF GRAD                          
                          Rob Parrish, Justin Turney,                
                       Andy Simmonett, and Alex Sokolov              
         ------------------------------------------------------------

  ==> Geometry <==

    Molecular point group: c1
    Full point group: C1

    Geometry (in Angstrom), charge = 0, multiplicity = 1:

       Center              X                  Y                   Z               Mass       
    ------------   -----------------  -----------------  -----------------  -----------------
         C            1.113469968743     0.000063511281    -0.507758298196    12.000000000000
         C            0.243643284873    -1.256333251724    -0.622453232352    12.000000000000
         C            0.243576712547     1.256412082505    -0.622298823492    12.000000000000
         C           -0.929617480142    -1.260367638010     0.354960910010    12.000000000000
         C           -0.929653351384     1.260264220923     0.355151587412    12.000000000000
         C           -1.777268913825    -0.000049537841     0.207757824533    12.000000000000
         C            1.970880582064     0.000015770241     0.755742990407    12.000000000000
         H            1.804208851607     0.000125017573    -1.359656894773     1.007825032230
         H            0.861545512215    -2.148865956862    -0.478556242666     1.007825032230
         H           -0.156062971602    -1.312587339291    -1.641837718467     1.007825032230
         H           -0.156152107650     1.312728104112    -1.641663226448     1.007825032230
         H            0.861424281439     2.148972762596    -0.478324342387     1.007825032230
         H           -0.558132758542    -1.325490224241     1.383297275447     1.007825032230
         H           -1.542311860083    -2.152128950372     0.191341054916     1.007825032230
         H           -1.542386137792     2.152030086033     0.191695372435     1.007825032230
         H           -0.558124121529     1.325226501807     1.383475306893     1.007825032230
         H           -2.243522043042     0.000023530572    -0.785017206715     1.007825032230
         H           -2.591726445872    -0.000109158044     0.938623701698     1.007825032230
         H            2.613691065460    -0.883446940648     0.785180697034     1.007825032230
         H            2.613649812677     0.883521794915     0.785363968209     1.007825032230
         H            1.367476022473    -0.000060636137     1.665491813590     1.007825032230

  Nuclear repulsion =  333.468310955289667

  ==> Basis Set <==

  Basis Set: DEF2-TZVP
    Blend: DEF2-TZVP
    Number of shells: 133
    Number of basis function: 301
    Number of Cartesian functions: 336
    Spherical Harmonics?: true
    Max angular momentum: 3

  ==> DFJKGrad: Density-Fitted SCF Gradients <==

    Gradient:                    1
    J tasked:                  Yes
    K tasked:                  Yes
    wK tasked:                  No
    OpenMP threads:              4
    Integrals threads:           4
    Memory [MiB]:             5722
    Schwarz Cutoff:          0E+00
    Fitting Condition:       1E-10

   => Auxiliary Basis Set <=

  Basis Set: (DEF2-TZVP AUX)
    Blend: DEF2-TZVP-JKFIT
    Number of shells: 259
    Number of basis function: 777
    Number of Cartesian functions: 903
    Spherical Harmonics?: true
    Max angular momentum: 4

  ==> DFT Potential <==

   => Composite Functional: PBE0 <= 

    PBE0 Hyb-GGA Exchange-Correlation Functional

    C. Adamo and V. Barone, J. Chem. Phys. 110, 6158 (1999)
    M. Ernzerhof and G. E. Scuseria, J. Chem. Phys. 110, 5029 (1999)

    Deriv               =              1
    GGA                 =           TRUE
    Meta                =          FALSE

    Exchange Hybrid     =           TRUE
    MP2 Hybrid          =          FALSE

   => Exchange Functionals <=

    0.7500   Perdew, Burke & Ernzerhof

   => Exact (HF) Exchange <=

    0.2500               HF 

   => Correlation Functionals <=

    1.0000   Perdew, Burke & Ernzerhof

   => Molecular Quadrature <=

    Radial Scheme          =       TREUTLER
    Pruning Scheme         =           FLAT
    Nuclear Scheme         =       TREUTLER

    BS radius alpha        =              1
    Pruning alpha          =              1
    Radial Points          =             75
    Spherical Points       =            302
    Total Points           =         472038
    Total Blocks           =           3450
    Max Points             =            256
    Max Functions          =            292


  -Total Gradient:
     Atom            X                  Y                   Z
    ------   -----------------  -----------------  -----------------
       1       -0.000452238817     0.000000734328    -0.000421863629
       2        0.000954562865    -0.001215144618    -0.001194522263
       3        0.000955168951     0.001211165937    -0.001195214792
       4       -0.000664180935    -0.001632606987     0.000789283286
       5       -0.000664222214     0.001631386409     0.000795607214
       6       -0.001783199841     0.000001376599     0.000416781025
       7        0.001308290754    -0.000005068011     0.001764540780
       8        0.000014600945    -0.000000730786     0.000038381664
       9        0.000157268728     0.000076359635     0.000153629263
      10       -0.000106026861     0.000194036555     0.000464763131
      11       -0.000102872626    -0.000197168758     0.000468582851
      12        0.000157501398    -0.000074835271     0.000154318590
      13       -0.000139095231     0.000382883297    -0.000521546125
      14        0.000074077224    -0.000105822974    -0.000293901825
      15        0.000072750715     0.000105693458    -0.000294131012
      16       -0.000138422071    -0.000383509803    -0.000525702787
      17        0.000702762222     0.000000106077     0.000341581664
      18        0.000014980228     0.000001046696     0.000225482271
      19       -0.000165262917     0.000088728357    -0.000343224694
      20       -0.000158763108    -0.000081456191    -0.000335600750
      21       -0.000026436265     0.000002823132    -0.000527971467


*** tstop() called on thinkpad at Sat Jul 10 12:51:34 2021
Module time:
	user time   =      46.58 seconds =       0.78 minutes
	system time =       0.51 seconds =       0.01 minutes
	total time  =         13 seconds =       0.22 minutes
Total time:
	user time   =     343.86 seconds =       5.73 minutes
	system time =       4.16 seconds =       0.07 minutes
	total time  =         99 seconds =       1.65 minutes

			-----------------------------------------
			 OPTKING 2.0: for geometry optimizations 
			  - R.A. King,  Bethel University        
			-----------------------------------------

	Previous internal coordinate definitions found.
	---Fragment 1 Geometry and Gradient---
	 C           2.1041532898        0.0001200189       -0.9595241215
	 C           0.4604190807       -2.3741257681       -1.1762661351
	 C           0.4602932773        2.3742747367       -1.1759743446
	 C          -1.7567224389       -2.3817496532        0.6707789052
	 C          -1.7567902257        2.3815542233        0.6711392332
	 C          -3.3585514984       -0.0000936130        0.3926053888
	 C           3.7244245261        0.0000298014        1.4281472731
	 H           3.4094606027        0.0002362490       -2.5693791557
	 H           1.6280850627       -4.0607681388       -0.9043402343
	 H          -0.2949162747       -2.4804305870       -3.1026236303
	 H          -0.2950847174        2.4806965940       -3.1022938882
	 H           1.6278559697        4.0609699724       -0.9039020063
	 H          -1.0547180553       -2.5048135058        2.6140530007
	 H          -2.9145470156       -4.0669343029        0.3615821903
	 H          -2.9146873801        4.0667474763        0.3622517534
	 H          -1.0547017337        2.5043151426        2.6143894314
	 H          -4.2396422178        0.0000444663       -1.4834675245
	 H          -4.8976531748       -0.0002062788        1.7737417311
	 H           4.9391602903       -1.6694727642        1.4837764764
	 H           4.9390823338        1.6696142183        1.4841228087
	 H           2.5841551656       -0.0001145857        3.1473233919
	            -0.0004522388        0.0000007343       -0.0004218636
	             0.0009545629       -0.0012151446       -0.0011945223
	             0.0009551690        0.0012111659       -0.0011952148
	            -0.0006641809       -0.0016326070        0.0007892833
	            -0.0006642222        0.0016313864        0.0007956072
	            -0.0017831998        0.0000013766        0.0004167810
	             0.0013082908       -0.0000050680        0.0017645408
	             0.0000146009       -0.0000007308        0.0000383817
	             0.0001572687        0.0000763596        0.0001536293
	            -0.0001060269        0.0001940366        0.0004647631
	            -0.0001028726       -0.0001971688        0.0004685829
	             0.0001575014       -0.0000748353        0.0001543186
	            -0.0001390952        0.0003828833       -0.0005215461
	             0.0000740772       -0.0001058230       -0.0002939018
	             0.0000727507        0.0001056935       -0.0002941310
	            -0.0001384221       -0.0003835098       -0.0005257028
	             0.0007027622        0.0000001061        0.0003415817
	             0.0000149802        0.0000010467        0.0002254823
	            -0.0001652629        0.0000887284       -0.0003432247
	            -0.0001587631       -0.0000814562       -0.0003356007
	            -0.0000264363        0.0000028231       -0.0005279715

	---Fragment 1 Intrafragment Coordinates---
	 - Coordinate -           - BOHR/RAD -       - ANG/DEG -
	 R(1,2)           =         2.895839	       1.532412
	 R(1,3)           =         2.895814	       1.532399
	 R(1,7)           =         2.885525	       1.526954
	 R(1,8)           =         2.072549	       1.096746
	 R(2,4)           =         2.885715	       1.527055
	 R(2,9)           =         2.069336	       1.095045
	 R(2,10)          =         2.071880	       1.096392
	 R(3,5)           =         2.885713	       1.527054
	 R(3,11)          =         2.071866	       1.096384
	 R(3,12)          =         2.069340	       1.095047
	 R(4,6)           =         2.883665	       1.525970
	 R(4,13)          =         2.069848	       1.095316
	 R(4,14)          =         2.067851	       1.094260
	 R(5,6)           =         2.883655	       1.525965
	 R(5,15)          =         2.067852	       1.094260
	 R(5,16)          =         2.069836	       1.095310
	 R(6,17)          =         2.072672	       1.096811
	 R(6,18)          =         2.067939	       1.094306
	 R(7,19)          =         2.065409	       1.092968
	 R(7,20)          =         2.065439	       1.092983
	 R(7,21)          =         2.062954	       1.091668
	 B(1,2,4)         =         1.971831	     112.977582
	 B(1,2,9)         =         1.915726	     109.763004
	 B(1,2,10)        =         1.895038	     108.577688
	 B(1,3,5)         =         1.971820	     112.976982
	 B(1,3,11)        =         1.895019	     108.576602
	 B(1,3,12)        =         1.915736	     109.763573
	 B(1,7,19)        =         1.931100	     110.643900
	 B(1,7,20)        =         1.931167	     110.647693
	 B(1,7,21)        =         1.959731	     112.284303
	 B(2,1,3)         =         1.922367	     110.143509
	 B(2,1,7)         =         1.961279	     112.373007
	 B(2,1,8)         =         1.874860	     107.421585
	 B(2,4,6)         =         1.942133	     111.276014
	 B(2,4,13)        =         1.918246	     109.907410
	 B(2,4,14)        =         1.914143	     109.672303
	 B(3,1,7)         =         1.961274	     112.372734
	 B(3,1,8)         =         1.874877	     107.422561
	 B(3,5,6)         =         1.942120	     111.275306
	 B(3,5,15)        =         1.914154	     109.672947
	 B(3,5,16)        =         1.918230	     109.906507
	 B(4,2,9)         =         1.925461	     110.320789
	 B(4,2,10)        =         1.891118	     108.353082
	 B(4,6,5)         =         1.943639	     111.362311
	 B(4,6,17)        =         1.900229	     108.875075
	 B(4,6,18)        =         1.927254	     110.423520
	 B(5,3,11)        =         1.891129	     108.353693
[...]
	 B(7,1,8)         =         1.866531	     106.944329
	 B(9,2,10)        =         1.857202	     106.409858
	 B(11,3,12)       =         1.857202	     106.409845
	 B(13,4,14)       =         1.852210	     106.123820
	 B(15,5,16)       =         1.852210	     106.123827
	 B(17,6,18)       =         1.858719	     106.496771
	 B(19,7,20)       =         1.880510	     107.745305
	 B(19,7,21)       =         1.874415	     107.396084
	 B(20,7,21)       =         1.874417	     107.396156
	 D(1,2,4,6)       =         0.959644	      54.983574
	 D(1,2,4,13)      =        -1.156121	     -66.240843
	 D(1,2,4,14)      =         3.095497	     177.358915
	 D(1,3,5,6)       =        -0.959651	     -54.983958
	 D(1,3,5,15)      =        -3.095503	    -177.359233
	 D(1,3,5,16)      =         1.156115	      66.240538
	 D(2,1,3,5)       =         0.928194	      53.181621
	 D(2,1,3,11)      =        -1.173435	     -67.232847
	 D(2,1,3,12)      =         3.085072	     176.761607
	 D(2,1,7,19)      =         1.011331	      57.944988
	 D(2,1,7,20)      =         3.098585	     177.535858
	 D(2,1,7,21)      =        -1.086635	     -62.259574
	 D(2,4,6,5)       =        -0.963011	     -55.176491
	 D(2,4,6,17)      =         1.137242	      65.159153
	 D(2,4,6,18)      =        -3.109091	    -178.137782
	 D(3,1,2,4)       =        -0.928192	     -53.181461
	 D(3,1,2,9)       =        -3.085072	    -176.761614
	 D(3,1,2,10)      =         1.173435	      67.232891
	 D(3,1,7,19)      =        -3.098542	    -177.533404
	 D(3,1,7,20)      =        -1.011288	     -57.942533
	 D(3,1,7,21)      =         1.086678	      62.262035
	 D(3,5,6,4)       =         0.963015	      55.176698
	 D(3,5,6,17)      =        -1.137238	     -65.158946
	 D(3,5,6,18)      =         3.109094	     178.137979
	 D(4,2,1,7)       =         1.267850	      72.642435
	 D(4,2,1,8)       =        -2.966521	    -169.969146
	 D(4,6,5,15)      =         3.093535	     177.246473
	 D(4,6,5,16)      =        -1.159345	     -66.425576
	 D(5,3,1,7)       =        -1.267846	     -72.642198
	 D(5,3,1,8)       =         2.966525	     169.969376
	 D(5,6,4,13)      =         1.159347	      66.425675
	 D(5,6,4,14)      =        -3.093534	    -177.246422
	 D(6,4,2,9)       =         3.112206	     178.316291
	 D(6,4,2,10)      =        -1.142823	     -65.478948
	 D(6,5,3,11)      =         1.142818	      65.478674
	 D(6,5,3,12)      =        -3.112211	    -178.316566
	 D(7,1,2,9)       =        -0.889031	     -50.937718
	 D(7,1,2,10)      =        -2.913709	    -166.943214
	 D(7,1,3,11)      =         2.913711	     166.943334
	 D(7,1,3,12)      =         0.889032	      50.937787
	 D(8,1,2,9)       =         1.159784	      66.450701
	 D(8,1,2,10)      =        -0.864894	     -49.554795
	 D(8,1,3,11)      =         0.864896	      49.554908
	 D(8,1,3,12)      =        -1.159782	     -66.450639
	 D(8,1,7,19)      =        -1.043606	     -59.794238
	 D(8,1,7,20)      =         1.043648	      59.796633
	 D(8,1,7,21)      =        -3.141572	    -179.998799
	 D(9,2,4,13)      =         0.996441	      57.091874
	 D(9,2,4,14)      =        -1.035126	     -59.308368
	 D(10,2,4,13)     =         3.024597	     173.296634
	 D(10,2,4,14)     =         0.993029	      56.896392
	 D(11,3,5,15)     =        -0.993033	     -56.896601
	 D(11,3,5,16)     =        -3.024600	    -173.296830
	 D(12,3,5,15)     =         1.035123	      59.308159
	 D(12,3,5,16)     =        -0.996445	     -57.092069
	 D(13,4,6,17)     =        -3.023585	    -173.238681
	 D(13,4,6,18)     =        -0.986733	     -56.535616
	 D(14,4,6,17)     =        -0.993280	     -56.910777
	 D(14,4,6,18)     =         1.043572	      59.792287
	 D(15,5,6,17)     =         0.993281	      56.910829
	 D(15,5,6,18)     =        -1.043572	     -59.792246
	 D(16,5,6,17)     =         3.023587	     173.238780
	 D(16,5,6,18)     =         0.986734	      56.535704
	 R(6,7)           =         7.137653	       3.777083

	Current energy   :      -274.9441773346

	Energy change for the previous step:
		Projected    :         0.0000057238
		Actual       :        -0.0000006370

	Performing BFGS update.
	Previous computed or guess Hessian on step 1.
	Steps to be used in Hessian update: 3 2
	Taking RFO optimization step.
	Going to follow RFO solution 1.
	Using RFO vector 1.
	Norm of target step-size    0.00641
	Projected energy change by RFO approximation:        -0.0000013857

	Back-transformation to cartesian coordinates...
	Successfully converged to displaced geometry.

	--- Internal Coordinate Step in ANG or DEG, aJ/ANG or AJ/DEG ---
	 ---------------------------------------------------------------------------
	   Coordinate                Previous        Force       Change         New 
	   ----------                --------       ------       ------       ------
	    1 R(1,2)          =      1.531271     0.000238     0.000046     1.531318
	    2 R(1,3)          =      1.531270     0.000242     0.000047     1.531317
	    3 R(1,7)          =      1.524623    -0.000025    -0.000007     1.524615
	    4 R(1,8)          =      1.096677     0.000110     0.000013     1.096691
	    5 R(2,4)          =      1.524453     0.000397     0.000064     1.524517
	    6 R(2,9)          =      1.095155    -0.000040    -0.000011     1.095144
	    7 R(2,10)         =      1.097151    -0.000192    -0.000045     1.097107
	    8 R(3,5)          =      1.524453     0.000397     0.000064     1.524517
	    9 R(3,11)         =      1.097152    -0.000194    -0.000045     1.097107
	   10 R(3,12)         =      1.095155    -0.000039    -0.000011     1.095144
	   11 R(4,6)          =      1.523212     0.000202     0.000088     1.523300
	   12 R(4,13)         =      1.096235    -0.000117    -0.000044     1.096192
	   13 R(4,14)         =      1.094290     0.000104     0.000017     1.094307
	   14 R(5,6)          =      1.523212     0.000200     0.000088     1.523300
	   15 R(5,15)         =      1.094290     0.000106     0.000017     1.094307
	   16 R(5,16)         =      1.096236    -0.000119    -0.000044     1.096192
	   17 R(6,17)         =      1.097826    -0.000218    -0.000060     1.097766
	   18 R(6,18)         =      1.094286     0.000174     0.000029     1.094315
	   19 R(7,19)         =      1.093393    -0.000080    -0.000035     1.093358
	   20 R(7,20)         =      1.093393    -0.000078    -0.000036     1.093357
	   21 R(7,21)         =      1.092312     0.000109    -0.000025     1.092287
	   22 B(1,2,4)        =    112.920230    -0.000001    -0.010601   112.909629
	   23 B(1,2,9)        =    109.851251    -0.000002    -0.013927   109.837323
	   24 B(1,2,10)       =    108.605572     0.000000    -0.001600   108.603973
	   25 B(1,3,5)        =    112.920110    -0.000001    -0.010531   112.909579
	   26 B(1,3,11)       =    108.605664     0.000000    -0.001652   108.604012
	   27 B(1,3,12)       =    109.851278    -0.000002    -0.013933   109.837345
	   28 B(1,7,19)       =    110.837414     0.000001     0.004416   110.841830
	   29 B(1,7,20)       =    110.837292     0.000001     0.004489   110.841781
	   30 B(1,7,21)       =    112.420005     0.000001     0.001534   112.421539
	   31 B(2,1,3)        =    109.934377     0.000000    -0.026416   109.907962
	   32 B(2,1,7)        =    112.309646    -0.000000     0.002998   112.312644
	   33 B(2,1,8)        =    107.534439    -0.000001     0.001339   107.535778
	   34 B(2,4,6)        =    111.218372     0.000002     0.009077   111.227449
	   35 B(2,4,13)       =    109.957566    -0.000001    -0.005016   109.952551
	   36 B(2,4,14)       =    109.786986    -0.000000     0.000408   109.787395
	   37 B(3,1,7)        =    112.309779    -0.000000     0.002870   112.312649
	   38 B(3,1,8)        =    107.534329    -0.000001     0.001371   107.535699
	   39 B(3,5,6)        =    111.218340     0.000002     0.009092   111.227432
	   40 B(3,5,15)       =    109.786864    -0.000000     0.000490   109.787353
	   41 B(3,5,16)       =    109.957651    -0.000001    -0.005092   109.952559
	   42 B(4,2,9)        =    110.298650     0.000002     0.016112   110.314762
	   43 B(4,2,10)       =    108.521287     0.000001     0.003837   108.525124
	   44 B(4,6,5)        =    111.215967    -0.000001     0.004608   111.220575
	   45 B(4,6,17)       =    109.071374    -0.000000    -0.009095   109.062280
	   46 B(4,6,18)       =    110.426463     0.000001     0.006740   110.433203
	   47 B(5,3,11)       =    108.521391     0.000001     0.003743   108.525133
	   48 B(5,3,12)       =    110.298571     0.000002     0.016174   110.314745
	   49 B(5,6,17)       =    109.071375    -0.000000    -0.009111   109.062264
	   50 B(5,6,18)       =    110.426481     0.000001     0.006736   110.433217
	   51 B(6,4,13)       =    109.310916    -0.000001    -0.008804   109.302112
	   52 B(6,4,14)       =    110.314409    -0.000000     0.003524   110.317933
	   53 B(6,5,15)       =    110.314441    -0.000000     0.003505   110.317945
	   54 B(6,5,16)       =    109.310950    -0.000001    -0.008828   109.302121
	   55 B(7,1,8)        =    106.944329     0.000002     0.019267   106.963596
	   56 B(9,2,10)       =    106.409858     0.000000     0.007222   106.417080
	   57 B(11,3,12)      =    106.409845     0.000000     0.007236   106.417080
	   58 B(13,4,14)      =    106.123820     0.000000     0.000260   106.124080
	   59 B(15,5,16)      =    106.123827     0.000000     0.000283   106.124109
	   60 B(17,6,18)      =    106.496771    -0.000000    -0.000581   106.496190
	   61 B(19,7,20)      =    107.745305    -0.000001    -0.004078   107.741226
	   62 B(19,7,21)      =    107.396084    -0.000001    -0.003443   107.392640
	   63 B(20,7,21)      =    107.396156    -0.000001    -0.003615   107.392540
	   64 D(1,2,4,6)      =     54.983574     0.000000     0.017538    55.001112
	   65 D(1,2,4,13)     =    -66.240843     0.000000     0.026018   -66.214825
	   66 D(1,2,4,14)     =    177.358915     0.000000     0.028383   177.387298
	   67 D(1,3,5,6)      =    -54.983958    -0.000000    -0.017330   -55.001287
	   68 D(1,3,5,15)     =   -177.359233    -0.000000    -0.028216  -177.387449
	   69 D(1,3,5,16)     =     66.240538    -0.000000    -0.025881    66.214657
	   70 D(2,1,3,5)      =     53.181621     0.000000     0.067251    53.248873
	   71 D(2,1,3,11)     =    -67.232847     0.000000     0.070398   -67.162449
	   72 D(2,1,3,12)     =    176.761607     0.000000     0.070341   176.831948
	   73 D(2,1,7,19)     =     57.944988     0.000000     0.013608    57.958596
	   74 D(2,1,7,20)     =    177.535858     0.000000     0.014317   177.550175
	   75 D(2,1,7,21)     =    -62.259574     0.000000     0.013878   -62.245695
	   76 D(2,4,6,5)      =    -55.176491     0.000000     0.045613   -55.130879
	   77 D(2,4,6,17)     =     65.159153     0.000000     0.031252    65.190405
	   78 D(2,4,6,18)     =   -178.137782     0.000000     0.029046  -178.108737
	   79 D(3,1,2,4)      =    -53.181461    -0.000000    -0.067338   -53.248799
	   80 D(3,1,2,9)      =   -176.761614    -0.000000    -0.070301  -176.831915
	   81 D(3,1,2,10)     =     67.232891    -0.000000    -0.070374    67.162517
	   82 D(3,1,7,19)     =   -177.533404    -0.000000    -0.017027  -177.550430
	   83 D(3,1,7,20)     =    -57.942533    -0.000000    -0.016318   -57.958851
	   84 D(3,1,7,21)     =     62.262035    -0.000000    -0.016757    62.245279
	   85 D(3,5,6,4)      =     55.176698    -0.000000    -0.045728    55.130970
	   86 D(3,5,6,17)     =    -65.158946    -0.000000    -0.031377   -65.190323
	   87 D(3,5,6,18)     =    178.137979    -0.000000    -0.029159   178.108820
	   88 D(4,2,1,7)      =     72.642435    -0.000000    -0.081622    72.560812
	   89 D(4,2,1,8)      =   -169.969146     0.000000    -0.055547  -170.024693
	   90 D(4,6,5,15)     =    177.246473    -0.000000    -0.036502   177.209972
	   91 D(4,6,5,16)     =    -66.425576    -0.000000    -0.039325   -66.464901
	   92 D(5,3,1,7)      =    -72.642198     0.000000     0.081463   -72.560735
	   93 D(5,3,1,8)      =    169.969376    -0.000000     0.055441   170.024816
	   94 D(5,6,4,13)     =     66.425675     0.000000     0.039311    66.464986
	   95 D(5,6,4,14)     =   -177.246422     0.000000     0.036486  -177.209935
	   96 D(6,4,2,9)      =    178.316291    -0.000000     0.003819   178.320110
	   97 D(6,4,2,10)     =    -65.478948    -0.000000     0.023670   -65.455278
	   98 D(6,5,3,11)     =     65.478674     0.000000    -0.023548    65.455126
	   99 D(6,5,3,12)     =   -178.316566     0.000000    -0.003699  -178.320265
	  100 D(7,1,2,9)      =    -50.937718    -0.000000    -0.084586   -51.022304
	  101 D(7,1,2,10)     =   -166.943214    -0.000000    -0.084658  -167.027872
	  102 D(7,1,3,11)     =    166.943334     0.000000     0.084609   167.027943
	  103 D(7,1,3,12)     =     50.937787     0.000000     0.084553    51.022340
	  104 D(8,1,2,9)      =     66.450701    -0.000000    -0.058510    66.392191
	  105 D(8,1,2,10)     =    -49.554795     0.000000    -0.058583   -49.613378
	  106 D(8,1,3,11)     =     49.554908    -0.000000     0.058587    49.613495
	  107 D(8,1,3,12)     =    -66.450639     0.000000     0.058531   -66.392108
	  108 D(8,1,7,19)     =    -59.794238    -0.000000    -0.001727   -59.795964
	  109 D(8,1,7,20)     =     59.796633     0.000000    -0.001018    59.795616
	  110 D(8,1,7,21)     =   -179.998799     0.000000    -0.001201  -180.000000
	  111 D(9,2,4,13)     =     57.091874    -0.000000     0.012298    57.104172
	  112 D(9,2,4,14)     =    -59.308368    -0.000000     0.014663   -59.293705
	  113 D(10,2,4,13)    =    173.296634     0.000000     0.032150   173.328784
	  114 D(10,2,4,14)    =     56.896392     0.000000     0.034515    56.930907
	  115 D(11,3,5,15)    =    -56.896601    -0.000000    -0.034434   -56.931035
	  116 D(11,3,5,16)    =   -173.296830    -0.000000    -0.032100  -173.328929
	  117 D(12,3,5,15)    =     59.308159     0.000000    -0.014585    59.293574
	  118 D(12,3,5,16)    =    -57.092069     0.000000    -0.012251   -57.104320
	  119 D(13,4,6,17)    =   -173.238681    -0.000000     0.024951  -173.213730
	  120 D(13,4,6,18)    =    -56.535616    -0.000000     0.022744   -56.512872
	  121 D(14,4,6,17)    =    -56.910777    -0.000000     0.022126   -56.888651
	  122 D(14,4,6,18)    =     59.792287    -0.000000     0.019919    59.812207
	  123 D(15,5,6,17)    =     56.910829     0.000000    -0.022150    56.888679
	  124 D(15,5,6,18)    =    -59.792246     0.000000    -0.019932   -59.812178
	  125 D(16,5,6,17)    =    173.238780     0.000000    -0.024973   173.213806
	  126 D(16,5,6,18)    =     56.535704     0.000000    -0.022755    56.512949
	  127 R(6,7)          =      3.777083     0.000182    -0.001000     3.776083
	 ---------------------------------------------------------------------------
	Successfully symmetrized geometry.

  ==> Convergence Check <==

  Measures of convergence in internal coordinates in au.
  Criteria marked as inactive (o), active & met (*), and active & unmet ( ).
  ---------------------------------------------------------------------------------------------
   Step     Total Energy     Delta E     MAX Force     RMS Force      MAX Disp      RMS Disp   
  ---------------------------------------------------------------------------------------------
    Convergence Criteria    1.00e-06 *    3.00e-04 *             o    1.20e-03 *             o
  ---------------------------------------------------------------------------------------------
      4    -274.94417733   -6.37e-07 *    4.82e-05 *    1.47e-05 o    1.89e-03      5.69e-04 o  ~
  ---------------------------------------------------------------------------------------------


  **** Optimization is complete! (in 4 steps) ****

  ==> Optimization Summary <==

  Measures of convergence in internal coordinates in au.
  --------------------------------------------------------------------------------------------------------------- ~
   Step         Total Energy             Delta E       MAX Force       RMS Force        MAX Disp        RMS Disp  ~
  --------------------------------------------------------------------------------------------------------------- ~
      1    -274.943624765431   -274.943624765431      0.00369199      0.00093274      0.05108024      0.01934937  ~
      2    -274.944130382021     -0.000505616590      0.00111505      0.00030084      0.02211824      0.00459865  ~
      3    -274.944176697595     -0.000046315574      0.00031381      0.00007056      0.00336067      0.00125113  ~
      4    -274.944177334601     -0.000000637006      0.00004820      0.00001473      0.00189026      0.00056896  ~
  --------------------------------------------------------------------------------------------------------------- ~

	Writing optimization data to binary file.
	Final energy is   -274.9441773346011
	Final (previous) structure:
	Cartesian Geometry (in Angstrom)
	    C     1.1134865843   0.0000601954  -0.5089087087
	    C     0.2420390682  -1.2537944021  -0.6238873628
	    C     0.2419792809   1.2538864618  -0.6237263195
	    C    -0.9258572029  -1.2569882693   0.3558910830
	    C    -0.9259138945   1.2568971843   0.3560562668
	    C    -1.7733690349  -0.0000550116   0.2075092045
	    C     1.9635709761  -0.0000025329   0.7567259476
	    H     1.8061401493   0.0001327039  -1.3591629729
	    H     0.8576836072  -2.1486699828  -0.4840861569
	    H    -0.1585149026  -1.3093741874  -1.6437935277
	    H    -0.1585790029   1.3095789194  -1.6436251076
	    H     0.8575801387   2.1487740172  -0.4838101972
	    H    -0.5514675761  -1.3224818821   1.3841297174
	    H    -1.5391270338  -2.1494848733   0.1983433729
	    H    -1.5392235832   2.1493868985   0.1986268789
	    H    -0.5515253450   1.3222722530   1.3843032168
	    H    -2.2443701954  -0.0000005041  -0.7841454961
	    H    -2.5878224306  -0.0001216243   0.9383495019
	    H     2.6072342236  -0.8831213151   0.7928829721
	    H     2.6071600769   0.8831643837   0.7930175612
	    H     1.3576335979  -0.0000979747   1.6655635342
	Saving final (previous) structure.
			--------------------------
			 OPTKING Finished Execution 
			--------------------------

    Final optimized geometry and variables:
    Molecular point group: c1
    Full point group: C1

    Geometry (in Angstrom), charge = 0, multiplicity = 1:

    C            1.113486588636     0.000060195409    -0.508908710667
    C            0.242039069166    -1.253794407077    -0.623887365285
    C            0.241979281885     1.253886466708    -0.623726321992
    C           -0.925857206493    -1.256988274290     0.355891084385
    C           -0.925913898112     1.256897189233     0.356056268161
    C           -1.773369041867    -0.000055011559     0.207509205331
    C            1.963570983849    -0.000002532935     0.756725950536
    H            1.806140156432     0.000132703916    -1.359162978209
    H            0.857683610616    -2.148669991246    -0.484086158785
    H           -0.158514903198    -1.309374192585    -1.643793534148
    H           -0.158579003475     1.309578924508    -1.643625114018
    H            0.857580142065     2.148774025694    -0.483810199123
    H           -0.551467578262    -1.322481887274     1.384129722853
    H           -1.539127039840    -2.149484881763     0.198343373706
    H           -1.539223589251     2.149386906988     0.198626879723
    H           -0.551525347208     1.322272258199     1.384303222238
    H           -2.244370204225    -0.000000504076    -0.784145499167
    H           -2.587822440786    -0.000121624338     0.938349505609
    H            2.607234233895    -0.883121318544     0.792882975244
    H            2.607160087146     0.883164387158     0.793017564335
    H            1.357633603225    -0.000097974711     1.665563540705

	Removing binary optimization data file.
	Cleaning optimization helper files.

    Psi4 stopped on: Saturday, 10 July 2021 12:52PM
    Psi4 wall time for execution: 0:02:57.73

*** Psi4 exiting successfully. Buy a developer a beer!
