      -----------------------------------------------------------      
     |                   =====================                   |     
     |                           x T B                           |     
     |                   =====================                   |     
     |                         S. Grimme                         |     
     |          Mulliken Center for Theoretical Chemistry        |     
     |                    University of Bonn                     |     
      -----------------------------------------------------------      

   * xtb version 6.4.1-2.fc34.fc34 compiled by Fedora project on Wed Jun 30 15:53:26 UTC 2021

   xtb is free software: you can redistribute it and/or modify it under
   the terms of the GNU Lesser General Public License as published by
   the Free Software Foundation, either version 3 of the License, or
   (at your option) any later version.
   
   xtb is distributed in the hope that it will be useful,
   but WITHOUT ANY WARRANTY; without even the implied warranty of
   MERCHANTABILITY or FITNESS FOR A PARTICULAR PURPOSE.  See the
   GNU Lesser General Public License for more details.
   
   Cite this work as:
   * C. Bannwarth, E. Caldeweyher, S. Ehlert, A. Hansen, P. Pracht,
     J. Seibert, S. Spicher, S. Grimme, WIREs Comput. Mol. Sci., 2020, 11,
     e01493. DOI: 10.1002/wcms.1493
   
   for GFN2-xTB:
   * C. Bannwarth, S. Ehlert and S. Grimme., J. Chem. Theory Comput., 2019,
     15, 1652-1671. DOI: 10.1021/acs.jctc.8b01176
   for GFN1-xTB:
   * S. Grimme, C. Bannwarth, P. Shushkov, J. Chem. Theory Comput., 2017,
     13, 1989-2009. DOI: 10.1021/acs.jctc.7b00118
   for GFN0-xTB:
   * P. Pracht, E. Caldeweyher, S. Ehlert, S. Grimme, ChemRxiv, 2019, preprint.
     DOI: 10.26434/chemrxiv.8326202.v1
   for GFN-FF:
   * S. Spicher and S. Grimme, Angew. Chem. Int. Ed., 2020, 59, 15665-15673.
     DOI: 10.1002/anie.202004239
   
   for DFT-D4:
   * E. Caldeweyher, C. Bannwarth and S. Grimme, J. Chem. Phys., 2017,
     147, 034112. DOI: 10.1063/1.4993215
   * E. Caldeweyher, S. Ehlert, A. Hansen, H. Neugebauer, S. Spicher,
     C. Bannwarth and S. Grimme, J. Chem. Phys., 2019, 150, 154122.
     DOI: 10.1063/1.5090222
   * E. Caldeweyher, J.-M. Mewes, S. Ehlert and S. Grimme, Phys. Chem. Chem. Phys.
     2020, 22, 8499-8512. DOI: 10.1039/D0CP00502A
   
   for sTDA-xTB:
   * S. Grimme and C. Bannwarth, J. Chem. Phys., 2016, 145, 054103.
     DOI: 10.1063/1.4959605
   
   in the mass-spec context:
   * V. Asgeirsson, C. Bauer and S. Grimme, Chem. Sci., 2017, 8, 4879.
     DOI: 10.1039/c7sc00601b
   * J. Koopman and S. Grimme, ACS Omega 2019, 4, 12, 15120-15133.
     DOI: 10.1021/acsomega.9b02011
   
   for metadynamics refer to:
   * S. Grimme, J. Chem. Theory Comput., 2019, 155, 2847-2862
     DOI: 10.1021/acs.jctc.9b00143
   
   for SPH calculations refer to:
   * S. Spicher and S. Grimme, J. Chem. Theory Comput., 2021, 17, 1701-1714
     DOI: 10.1021/acs.jctc.0c01306
   
   with help from (in alphabetical order)
   P. Atkinson, C. Bannwarth, F. Bohle, G. Brandenburg, E. Caldeweyher
   M. Checinski, S. Dohm, S. Ehlert, S. Ehrlich, I. Gerasimov, J. Koopman
   C. Lavigne, S. Lehtola, F. März, M. Müller, F. Musil, H. Neugebauer
   J. Pisarek, C. Plett, P. Pracht, J. Seibert, P. Shushkov, S. Spicher
   M. Stahn, M. Steiner, T. Strunk, J. Stückrath, T. Rose, and J. Unsleber
   
 * started run on 2021/08/09 at 17:30:49.858     

           -------------------------------------------------
          |                Calculation Setup                |
           -------------------------------------------------

          program call               : xtb -gfn 2 conformer2.xyz
          hostname                   : thinkpad
          coordinate file            : conformer2.xyz
          omp threads                :                     4
          number of atoms            :                    21
          number of electrons        :                    42
          charge                     :                     0
          spin                       :                   0.0
          first test random number   :      0.28290372311928

   ID    Z sym.   atoms
    1    6 C      1-7
    2    1 H      8-21
########################################################################
[WARNING] Please study the warnings concerning your input carefully
-1- prog_main_parseArguments: the use of '-gfn' is discouraged, please use '--gfn' next time
########################################################################

           -------------------------------------------------
          |                 G F N 2 - x T B                 |
           -------------------------------------------------

        Reference                      10.1021/acs.jctc.8b01176
      * Hamiltonian:
        H0-scaling (s, p, d)           1.850000    2.230000    2.230000
        zeta-weighting                 0.500000
      * Dispersion:
        s8                             2.700000
        a1                             0.520000
        a2                             5.000000
        s9                             5.000000
      * Repulsion:
        kExp                           1.500000    1.000000
        rExp                           1.000000
      * Coulomb:
        alpha                          2.000000
        third order                    shell-resolved
        anisotropic                    true
        a3                             3.000000
        a5                             4.000000
        cn-shift                       1.200000
        cn-exp                         4.000000
        max-rad                        5.000000

q/qsh data taken from xtbrestart
CAMM data taken from xtbrestart

          ...................................................
          :                      SETUP                      :
          :.................................................:
          :  # basis functions                  42          :
          :  # atomic orbitals                  42          :
          :  # shells                           28          :
          :  # electrons                        42          :
          :  max. iterations                   250          :
          :  Hamiltonian                  GFN2-xTB          :
          :  restarted?                       true          :
          :  GBSA solvation                  false          :
          :  PC potential                    false          :
          :  electronic temp.          300.0000000     K    :
          :  accuracy                    1.0000000          :
          :  -> integral cutoff          0.2500000E+02      :
          :  -> integral neglect         0.1000000E-07      :
          :  -> SCF convergence          0.1000000E-05 Eh   :
          :  -> wf. convergence          0.1000000E-03 e    :
          :  Broyden damping             0.4000000          :
          ...................................................

 iter      E             dE          RMSdq      gap      omega  full diag
   1    -22.4721351 -0.224721E+02  0.227E+00   13.29       0.0  T
   2    -22.4733694 -0.123423E-02  0.135E+00   13.25       1.0  T
   3    -22.4737952 -0.425868E-03  0.121E-01   13.18       1.0  T
   4    -22.4738066 -0.113558E-04  0.665E-02   13.18       1.0  T
   5    -22.4738070 -0.406926E-06  0.142E-02   13.19       1.5  T
   6    -22.4738084 -0.142893E-05  0.339E-03   13.19       6.4  T
   7    -22.4738084 -0.146649E-07  0.459E-04   13.19      47.5  T
   8    -22.4738084 -0.115249E-08  0.189E-04   13.19     115.2  T

   *** convergence criteria satisfied after 8 iterations ***

         #    Occupation            Energy/Eh            Energy/eV
      -------------------------------------------------------------
         1        2.0000           -0.6296141             -17.1327
       ...           ...                  ...                  ...
        15        2.0000           -0.4494593             -12.2304
        16        2.0000           -0.4425565             -12.0426
        17        2.0000           -0.4353417             -11.8463
        18        2.0000           -0.4288022             -11.6683
        19        2.0000           -0.4110477             -11.1852
        20        2.0000           -0.4072985             -11.0832
        21        2.0000           -0.4051480             -11.0246 (HOMO)
        22                          0.0794090               2.1608 (LUMO)
        23                          0.0864068               2.3512
        24                          0.0944214               2.5693
        25                          0.1110546               3.0219
        26                          0.1114725               3.0333
       ...                                ...                  ...
        42                          0.3071166               8.3571
      -------------------------------------------------------------
                  HL-Gap            0.4845570 Eh           13.1855 eV
             Fermi-level           -0.1628695 Eh           -4.4319 eV

 SCC (total)                   0 d,  0 h,  0 min,  0.009 sec
 SCC setup                      ...        0 min,  0.000 sec (  1.140%)
 Dispersion                     ...        0 min,  0.000 sec (  0.938%)
 classical contributions        ...        0 min,  0.000 sec (  0.361%)
 integral evaluation            ...        0 min,  0.000 sec (  5.452%)
 iterations                     ...        0 min,  0.006 sec ( 73.134%)
 molecular gradient             ...        0 min,  0.002 sec ( 17.537%)
 printout                       ...        0 min,  0.000 sec (  1.361%)

         :::::::::::::::::::::::::::::::::::::::::::::::::::::
         ::                     SUMMARY                     ::
         :::::::::::::::::::::::::::::::::::::::::::::::::::::
         :: total energy             -22.150597390873 Eh    ::
         :: gradient norm              0.018870101154 Eh/a0 ::
         :: HOMO-LUMO gap             13.185466742283 eV    ::
         ::.................................................::
         :: SCC energy               -22.473808429366 Eh    ::
         :: -> isotropic ES            0.003195675656 Eh    ::
         :: -> anisotropic ES          0.006604774647 Eh    ::
         :: -> anisotropic XC          0.012584745309 Eh    ::
         :: -> dispersion             -0.014574285474 Eh    ::
         :: repulsion energy           0.323142577219 Eh    ::
         :: add. restraining           0.000000000000 Eh    ::
         :: total charge               0.000000000000 e     ::
         :::::::::::::::::::::::::::::::::::::::::::::::::::::

           -------------------------------------------------
          |                Property Printout                |
           -------------------------------------------------

    * Orbital Energies and Occupations

         #    Occupation            Energy/Eh            Energy/eV
      -------------------------------------------------------------
         1        2.0000           -0.6296141             -17.1327
       ...           ...                  ...                  ...
         9        2.0000           -0.4991502             -13.5826
        10        2.0000           -0.4952009             -13.4751
        11        2.0000           -0.4901913             -13.3388
        12        2.0000           -0.4769998             -12.9798
        13        2.0000           -0.4738058             -12.8929
        14        2.0000           -0.4603881             -12.5278
        15        2.0000           -0.4494593             -12.2304
        16        2.0000           -0.4425565             -12.0426
        17        2.0000           -0.4353417             -11.8463
        18        2.0000           -0.4288022             -11.6683
        19        2.0000           -0.4110477             -11.1852
        20        2.0000           -0.4072985             -11.0832
        21        2.0000           -0.4051480             -11.0246 (HOMO)
        22                          0.0794090               2.1608 (LUMO)
        23                          0.0864068               2.3512
        24                          0.0944214               2.5693
        25                          0.1110546               3.0219
        26                          0.1114725               3.0333
        27                          0.1170675               3.1856
        28                          0.1280272               3.4838
        29                          0.1344282               3.6580
        30                          0.1737567               4.7282
        31                          0.1802558               4.9050
        32                          0.1825076               4.9663
       ...                                ...                  ...
        42                          0.3071166               8.3571
      -------------------------------------------------------------
                  HL-Gap            0.4845570 Eh           13.1855 eV
             Fermi-level           -0.1628695 Eh           -4.4319 eV

     #   Z          covCN         q      C6AA      α(0)
     1   6 C        3.851    -0.010    20.723     6.475
     2   6 C        3.806    -0.056    21.583     6.614
     3   6 C        3.806    -0.056    21.582     6.614
     4   6 C        3.803    -0.052    21.499     6.601
     5   6 C        3.803    -0.052    21.499     6.601
     6   6 C        3.804    -0.052    21.512     6.603
     7   6 C        3.752    -0.101    22.487     6.762
     8   1 H        0.924     0.022     2.699     2.569
     9   1 H        0.924     0.026     2.644     2.543
    10   1 H        0.924     0.027     2.628     2.535
    11   1 H        0.924     0.027     2.628     2.535
    12   1 H        0.924     0.026     2.644     2.543
    13   1 H        0.924     0.030     2.588     2.516
    14   1 H        0.924     0.023     2.683     2.562
    15   1 H        0.924     0.023     2.683     2.562
    16   1 H        0.924     0.030     2.588     2.516
    17   1 H        0.924     0.027     2.626     2.534
    18   1 H        0.924     0.023     2.688     2.564
    19   1 H        0.924     0.029     2.601     2.522
    20   1 H        0.924     0.029     2.601     2.522
    21   1 H        0.924     0.036     2.500     2.473

 Mol. C6AA /au·bohr⁶  :       3037.070148
 Mol. C8AA /au·bohr⁸  :      64179.026722
 Mol. α(0) /au        :         81.764861


Wiberg/Mayer (AO) data.
largest (>0.10) Wiberg bond orders for each atom

 ---------------------------------------------------------------------------
     #   Z sym  total        # sym  WBO       # sym  WBO       # sym  WBO
 ---------------------------------------------------------------------------
     1   6 C    3.996 --     7 C    1.010     3 C    0.996     2 C    0.996
                             8 H    0.969
     2   6 C    3.998 --     4 C    1.009     1 C    0.996    10 H    0.977
                             9 H    0.977
     3   6 C    3.998 --     5 C    1.009     1 C    0.996    11 H    0.977
                            12 H    0.977
     4   6 C    3.998 --     2 C    1.009     6 C    1.009    14 H    0.977
                            13 H    0.976
     5   6 C    3.998 --     3 C    1.009     6 C    1.009    15 H    0.977
                            16 H    0.976
     6   6 C    3.998 --     4 C    1.009     5 C    1.009    18 H    0.978
                            17 H    0.977
     7   6 C    3.997 --     1 C    1.010    19 H    0.987    20 H    0.987
                            21 H    0.983
     8   1 H    1.000 --     1 C    0.969
     9   1 H    0.999 --     2 C    0.977
    10   1 H    0.999 --     2 C    0.977
    11   1 H    0.999 --     3 C    0.977
    12   1 H    0.999 --     3 C    0.977
    13   1 H    0.999 --     4 C    0.976
    14   1 H    0.999 --     4 C    0.977
    15   1 H    0.999 --     5 C    0.977
    16   1 H    0.999 --     5 C    0.976
    17   1 H    0.999 --     6 C    0.977
    18   1 H    0.999 --     6 C    0.978
    19   1 H    0.999 --     7 C    0.987
    20   1 H    0.999 --     7 C    0.987
    21   1 H    0.999 --     7 C    0.983
 ---------------------------------------------------------------------------

Topologies differ in total number of bonds
Writing topology from bond orders to xtbtopo.mol

molecular dipole:
                 x           y           z       tot (Debye)
 q only:        0.005       0.000       0.010
   full:        0.005      -0.000       0.007       0.022
molecular quadrupole (traceless):
                xx          xy          yy          xz          yz          zz
 q only:       -0.117      -0.000       0.025      -0.012      -0.000       0.092
  q+dip:       -0.500      -0.000      -0.340       0.338      -0.000       0.839
   full:       -0.287      -0.000      -0.169       0.195      -0.000       0.456


           -------------------------------------------------
          | TOTAL ENERGY              -22.150597390873 Eh   |
          | GRADIENT NORM               0.018870101154 Eh/α |
          | HOMO-LUMO GAP              13.185466742283 eV   |
           -------------------------------------------------

------------------------------------------------------------------------
 * finished run on 2021/08/09 at 17:30:49.875     
------------------------------------------------------------------------
 total:
 * wall-time:     0 d,  0 h,  0 min,  0.017 sec
 *  cpu-time:     0 d,  0 h,  0 min,  0.060 sec
 * ratio c/w:     3.502 speedup
 SCF:
 * wall-time:     0 d,  0 h,  0 min,  0.009 sec
 *  cpu-time:     0 d,  0 h,  0 min,  0.027 sec
 * ratio c/w:     3.072 speedup

