      -----------------------------------------------------------      
     |                   =====================                   |     
     |                           x T B                           |     
     |                   =====================                   |     
     |                         S. Grimme                         |     
     |          Mulliken Center for Theoretical Chemistry        |     
     |                    University of Bonn                     |     
      -----------------------------------------------------------      

   * xtb version 6.4.1-2.fc34.fc34 compiled by Fedora project on Wed Jun 30 15:53:26 UTC 2021

   xtb is free software: you can redistribute it and/or modify it under
   the terms of the GNU Lesser General Public License as published by
   the Free Software Foundation, either version 3 of the License, or
   (at your option) any later version.
   
   xtb is distributed in the hope that it will be useful,
   but WITHOUT ANY WARRANTY; without even the implied warranty of
   MERCHANTABILITY or FITNESS FOR A PARTICULAR PURPOSE.  See the
   GNU Lesser General Public License for more details.
   
   Cite this work as:
   * C. Bannwarth, E. Caldeweyher, S. Ehlert, A. Hansen, P. Pracht,
     J. Seibert, S. Spicher, S. Grimme, WIREs Comput. Mol. Sci., 2020, 11,
     e01493. DOI: 10.1002/wcms.1493
   
   for GFN2-xTB:
   * C. Bannwarth, S. Ehlert and S. Grimme., J. Chem. Theory Comput., 2019,
     15, 1652-1671. DOI: 10.1021/acs.jctc.8b01176
   for GFN1-xTB:
   * S. Grimme, C. Bannwarth, P. Shushkov, J. Chem. Theory Comput., 2017,
     13, 1989-2009. DOI: 10.1021/acs.jctc.7b00118
   for GFN0-xTB:
   * P. Pracht, E. Caldeweyher, S. Ehlert, S. Grimme, ChemRxiv, 2019, preprint.
     DOI: 10.26434/chemrxiv.8326202.v1
   for GFN-FF:
   * S. Spicher and S. Grimme, Angew. Chem. Int. Ed., 2020, 59, 15665-15673.
     DOI: 10.1002/anie.202004239
   
   for DFT-D4:
   * E. Caldeweyher, C. Bannwarth and S. Grimme, J. Chem. Phys., 2017,
     147, 034112. DOI: 10.1063/1.4993215
   * E. Caldeweyher, S. Ehlert, A. Hansen, H. Neugebauer, S. Spicher,
     C. Bannwarth and S. Grimme, J. Chem. Phys., 2019, 150, 154122.
     DOI: 10.1063/1.5090222
   * E. Caldeweyher, J.-M. Mewes, S. Ehlert and S. Grimme, Phys. Chem. Chem. Phys.
     2020, 22, 8499-8512. DOI: 10.1039/D0CP00502A
   
   for sTDA-xTB:
   * S. Grimme and C. Bannwarth, J. Chem. Phys., 2016, 145, 054103.
     DOI: 10.1063/1.4959605
   
   in the mass-spec context:
   * V. Asgeirsson, C. Bauer and S. Grimme, Chem. Sci., 2017, 8, 4879.
     DOI: 10.1039/c7sc00601b
   * J. Koopman and S. Grimme, ACS Omega 2019, 4, 12, 15120-15133.
     DOI: 10.1021/acsomega.9b02011
   
   for metadynamics refer to:
   * S. Grimme, J. Chem. Theory Comput., 2019, 155, 2847-2862
     DOI: 10.1021/acs.jctc.9b00143
   
   for SPH calculations refer to:
   * S. Spicher and S. Grimme, J. Chem. Theory Comput., 2021, 17, 1701-1714
     DOI: 10.1021/acs.jctc.0c01306
   
   with help from (in alphabetical order)
   P. Atkinson, C. Bannwarth, F. Bohle, G. Brandenburg, E. Caldeweyher
   M. Checinski, S. Dohm, S. Ehlert, S. Ehrlich, I. Gerasimov, J. Koopman
   C. Lavigne, S. Lehtola, F. März, M. Müller, F. Musil, H. Neugebauer
   J. Pisarek, C. Plett, P. Pracht, J. Seibert, P. Shushkov, S. Spicher
   M. Stahn, M. Steiner, T. Strunk, J. Stückrath, T. Rose, and J. Unsleber
   
 * started run on 2021/08/09 at 17:30:49.510     

           -------------------------------------------------
          |                Calculation Setup                |
           -------------------------------------------------

          program call               : xtb -gfn 0 conformer3.xyz
          hostname                   : thinkpad
          coordinate file            : conformer3.xyz
          omp threads                :                     4
          number of atoms            :                    21
          number of electrons        :                    42
          charge                     :                     0
          spin                       :                   0.0
          first test random number   :      0.09814846339955

   ID    Z sym.   atoms
    1    6 C      1-7
    2    1 H      8-21
########################################################################
[WARNING] Please study the warnings concerning your input carefully
-1- prog_main_parseArguments: the use of '-gfn' is discouraged, please use '--gfn' next time
########################################################################

           -------------------------------------------------
          |                 G F N 0 - x T B                 |
           -------------------------------------------------

        Reference                      10.26434/chemrxiv.8326202.v1
      * Hamiltonian:
        H0-scaling (s, p, d)           2.000000    2.486800    2.270000
        zeta-weighting                 1.000000
      * Dispersion:
        s8                             2.850000
        a1                             0.800000
        a2                             4.600000
        s9                             0.000000
      * Repulsion:
        kExp                           1.500000
        rExp                           1.000000
      * Coulomb:
        alpha                          0.000000
        third order                    atomic
        anisotropic                    false
      * Polar bond correction:
        rad-shift                      0.053700
        strength                      -0.012900
        en-exp                         3.484700
        en-scale                       0.509700


          ...................................................
          :                      SETUP                      :
          :.................................................:
          :  # basis functions                  56          :
          :  # atomic orbitals                  56          :
          :  # shells                           42          :
          :  # electrons                        42          :
          :  electronic temp.          300.0000000     K    :
          :  accuracy                    1.0000000          :
          :  -> integral cutoff          0.2500000E+02      :
          :  -> integral neglect         0.1000000E-07      :
          ...................................................
  Checking positiv definite overlap ...  done.


         #    Occupation            Energy/Eh            Energy/eV
      -------------------------------------------------------------
         1        2.0000           -0.6387710             -17.3818
       ...           ...                  ...                  ...
        15        2.0000           -0.5070230             -13.7968
        16        2.0000           -0.4939048             -13.4398
        17        2.0000           -0.4934613             -13.4278
        18        2.0000           -0.4874984             -13.2655
        19        2.0000           -0.4758807             -12.9494
        20        2.0000           -0.4618734             -12.5682
        21        2.0000           -0.4609562             -12.5433 (HOMO)
        22                         -0.1551493              -4.2218 (LUMO)
        23                         -0.1478938              -4.0244
        24                         -0.1440849              -3.9207
        25                         -0.1383784              -3.7655
        26                         -0.1289144              -3.5079
       ...                                ...                  ...
        56                          0.4622114              12.5774
      -------------------------------------------------------------
                  HL-Gap            0.3058070 Eh            8.3214 eV
             Fermi-level            0.0000000 Eh            0.0000 eV

 EHT (total)                   0 d,  0 h,  0 min,  0.003 sec
 EHT setup                      ...        0 min,  0.000 sec (  2.963%)
 Coordination number            ...        0 min,  0.000 sec (  1.335%)
 EEQ model density              ...        0 min,  0.000 sec (  5.517%)
 D4 Dispersion                  ...        0 min,  0.000 sec ( 10.013%)
 Integral evaluation            ...        0 min,  0.001 sec ( 17.015%)
 Cholesky factorization         ...        0 min,  0.000 sec (  1.926%)
 Zeroth order Hamiltonian       ...        0 min,  0.001 sec ( 30.992%)
 Gradient calculation           ...        0 min,  0.001 sec ( 26.106%)

         :::::::::::::::::::::::::::::::::::::::::::::::::::::
         ::                     SUMMARY                     ::
         :::::::::::::::::::::::::::::::::::::::::::::::::::::
         :: total energy             -22.598183541329 Eh    ::
         :: gradient norm              0.028495535399 Eh/a0 ::
         :: HOMO-LUMO gap              8.321430734379 eV    ::
         ::.................................................::
         :: H0 energy                -22.918806429369 Eh    ::
         :: repulsion energy           0.345226858201 Eh    ::
         :: electrostat energy        -0.017407964668 Eh    ::
         :: -> Gsolv                   0.000000000000 Eh    ::
         ::    -> Gsasa                0.000000000000 Eh    ::
         ::    -> Gshift               0.000000000000 Eh    ::
         :: dispersion energy         -0.007196005494 Eh    ::
         :: short-range corr.          0.000000000000 Eh    ::
         :: add. restraining           0.000000000000 Eh    ::
         :: total charge               0.000000000000 e     ::
         :::::::::::::::::::::::::::::::::::::::::::::::::::::

           -------------------------------------------------
          |                Property Printout                |
           -------------------------------------------------

    * Orbital Energies and Occupations

         #    Occupation            Energy/Eh            Energy/eV
      -------------------------------------------------------------
         1        2.0000           -0.6387710             -17.3818
       ...           ...                  ...                  ...
         9        2.0000           -0.5526936             -15.0396
        10        2.0000           -0.5486399             -14.9293
        11        2.0000           -0.5423919             -14.7592
        12        2.0000           -0.5319034             -14.4738
        13        2.0000           -0.5215374             -14.1918
        14        2.0000           -0.5140639             -13.9884
        15        2.0000           -0.5070230             -13.7968
        16        2.0000           -0.4939048             -13.4398
        17        2.0000           -0.4934613             -13.4278
        18        2.0000           -0.4874984             -13.2655
        19        2.0000           -0.4758807             -12.9494
        20        2.0000           -0.4618734             -12.5682
        21        2.0000           -0.4609562             -12.5433 (HOMO)
        22                         -0.1551493              -4.2218 (LUMO)
        23                         -0.1478938              -4.0244
        24                         -0.1440849              -3.9207
        25                         -0.1383784              -3.7655
        26                         -0.1289144              -3.5079
        27                         -0.1191437              -3.2421
        28                         -0.1018739              -2.7721
        29                         -0.1000292              -2.7219
        30                         -0.0899358              -2.4473
        31                         -0.0884147              -2.4059
        32                         -0.0765122              -2.0820
       ...                                ...                  ...
        56                          0.4622114              12.5774
      -------------------------------------------------------------
                  HL-Gap            0.3058070 Eh            8.3214 eV
             Fermi-level            0.0000000 Eh            0.0000 eV

     #   Z          covCN         q      C6AA      α(0)
     1   6 C        3.852     0.069    21.730     6.712
     2   6 C        3.806    -0.162    26.441     7.410
     3   6 C        3.806    -0.162    26.441     7.410
     4   6 C        3.804    -0.136    25.860     7.328
     5   6 C        3.804    -0.136    25.860     7.328
     6   6 C        3.804    -0.130    25.736     7.310
     7   6 C        3.751    -0.411    33.052     8.297
     8   1 H        0.923     0.047     2.363     2.404
     9   1 H        0.923     0.077     2.008     2.216
    10   1 H        0.924     0.065     2.140     2.288
    11   1 H        0.924     0.065     2.140     2.288
    12   1 H        0.923     0.077     2.009     2.217
    13   1 H        0.924     0.061     2.184     2.311
    14   1 H        0.924     0.071     2.075     2.253
    15   1 H        0.924     0.071     2.075     2.253
    16   1 H        0.924     0.061     2.184     2.311
    17   1 H        0.924     0.059     2.213     2.326
    18   1 H        0.924     0.072     2.067     2.248
    19   1 H        0.924     0.115     1.654     2.011
    20   1 H        0.924     0.111     1.689     2.033
    21   1 H        0.924     0.115     1.654     2.011

 Mol. C6AA /au·bohr⁶  :       3114.325087
 Mol. C8AA /au·bohr⁸  :      68810.566398
 Mol. α(0) /au        :         82.964458


Wiberg/Mayer (AO) data.
largest (>0.10) Wiberg bond orders for each atom

 ---------------------------------------------------------------------------
     #   Z sym  total        # sym  WBO       # sym  WBO       # sym  WBO
 ---------------------------------------------------------------------------
     1   6 C    3.991 --     7 C    1.009     3 C    1.003     2 C    1.003
                             8 H    0.975
     2   6 C    3.988 --     4 C    1.011     1 C    1.003    10 H    0.977
                             9 H    0.973
     3   6 C    3.988 --     5 C    1.011     1 C    1.003    11 H    0.977
                            12 H    0.973
     4   6 C    3.989 --     6 C    1.012     2 C    1.011    13 H    0.978
                            14 H    0.975
     5   6 C    3.989 --     6 C    1.012     3 C    1.011    16 H    0.978
                            15 H    0.975
     6   6 C    3.989 --     4 C    1.012     5 C    1.012    17 H    0.978
                            18 H    0.975
     7   6 C    3.977 --     1 C    1.009    20 H    0.984    19 H    0.980
                            21 H    0.980
     8   1 H    0.978 --     1 C    0.975
     9   1 H    0.976 --     2 C    0.973
    10   1 H    0.980 --     2 C    0.977
    11   1 H    0.980 --     3 C    0.977
    12   1 H    0.976 --     3 C    0.973
    13   1 H    0.982 --     4 C    0.978
    14   1 H    0.979 --     4 C    0.975
    15   1 H    0.979 --     5 C    0.975
    16   1 H    0.982 --     5 C    0.978
    17   1 H    0.981 --     6 C    0.978
    18   1 H    0.979 --     6 C    0.975
    19   1 H    0.979 --     7 C    0.980
    20   1 H    0.985 --     7 C    0.984
    21   1 H    0.979 --     7 C    0.980
 ---------------------------------------------------------------------------

Topologies differ in total number of bonds
Writing topology from bond orders to xtbtopo.mol

 dipole moment from electron density (au)
     X       Y       Z   
  -0.0080   0.0000   0.0110  total (Debye):    0.035


           -------------------------------------------------
          | TOTAL ENERGY              -22.598183541329 Eh   |
          | GRADIENT NORM               0.028495535399 Eh/α |
          | HOMO-LUMO GAP               8.321430734379 eV   |
           -------------------------------------------------

------------------------------------------------------------------------
 * finished run on 2021/08/09 at 17:30:49.522     
------------------------------------------------------------------------
 total:
 * wall-time:     0 d,  0 h,  0 min,  0.012 sec
 *  cpu-time:     0 d,  0 h,  0 min,  0.043 sec
 * ratio c/w:     3.575 speedup
 SCF:
 * wall-time:     0 d,  0 h,  0 min,  0.003 sec
 *  cpu-time:     0 d,  0 h,  0 min,  0.011 sec
 * ratio c/w:     3.475 speedup

