
    -----------------------------------------------------------------------
          Psi4: An Open-Source Ab Initio Electronic Structure Package
                               Psi4 1.3.2 release

                         Git: Rev {} zzzzzzz 


    R. M. Parrish, L. A. Burns, D. G. A. Smith, A. C. Simmonett,
    A. E. DePrince III, E. G. Hohenstein, U. Bozkaya, A. Yu. Sokolov,
    R. Di Remigio, R. M. Richard, J. F. Gonthier, A. M. James,
    H. R. McAlexander, A. Kumar, M. Saitow, X. Wang, B. P. Pritchard,
    P. Verma, H. F. Schaefer III, K. Patkowski, R. A. King, E. F. Valeev,
    F. A. Evangelista, J. M. Turney, T. D. Crawford, and C. D. Sherrill,
    J. Chem. Theory Comput. 13(7) pp 3185--3197 (2017).
    (doi: 10.1021/acs.jctc.7b00174)


                         Additional Contributions by
    P. Kraus, H. Kruse, M. H. Lechner, M. C. Schieber, R. A. Shaw,
    A. Alenaizan, R. Galvelis, Z. L. Glick, S. Lehtola, and J. P. Misiewicz

    -----------------------------------------------------------------------


    Psi4 started on: Tuesday, 18 January 2022 09:20PM

    Process ID: 803872
    Host:       lenovo
    PSIDATADIR: /usr/share/psi4
    Memory:     500.0 MiB
    Threads:    4
    
  ==> Input File <==

--------------------------------------------------------------------------
memory 8 gb

molecule {
0 1
 C         -1.0139237009        0.0001157060       -0.3320119090
 C         -0.3010211074        1.2491572923        0.1879180723
 C         -0.3011951696       -1.2490517349        0.1878718396
 C          1.1683390004        1.2516621049       -0.2233071254
 C          1.1681695646       -1.2517772582       -0.2232981267
 C          1.8703096243       -0.0000923733        0.2934985390
 C         -2.4834630882        0.0000222911        0.0795247173
 H         -0.9582190930        0.0002005854       -1.4269602139
 H         -0.3718670923        1.2740378936        1.2781840671
 H         -0.7951641526        2.1435985756       -0.1985907954
 H         -0.7954642203       -2.1434127996       -0.1986469736
 H         -0.3720420205       -1.2738839625        1.2781559690
 H          1.6616052523        2.1443202680        0.1678151692
 H          1.2391547021        1.2815104197       -1.3133695212
 H          1.2390062002       -1.2817145988       -1.3133390411
 H          1.6612233508       -2.1444918905        0.1679208818
 H          2.9153982958       -0.0001245162       -0.0238784763
 H          1.8521966765       -0.0001224730        1.3859698783
 H         -2.5743116471        0.0004900512        1.1639789401
 H         -2.9899376694        0.8819226593       -0.3066017637
 H         -2.9892458557       -0.8827595520       -0.3054682049
}

set basis def2-tzvp
optimize('pbe0')
--------------------------------------------------------------------------

  Memory set to   7.451 GiB by Python driver.
gradient() will perform analytic gradient computation.

*** tstart() called on lenovo
*** at Tue Jan 18 21:20:36 2022

   => Loading Basis Set <=

    Name: DEF2-TZVP
    Role: ORBITAL
    Keyword: BASIS
    atoms 1-7  entry C          line   123 file /usr/share/psi4/basis/def2-tzvp.gbs 
    atoms 8-21 entry H          line    15 file /usr/share/psi4/basis/def2-tzvp.gbs 


         ---------------------------------------------------------
                                   SCF
               by Justin Turney, Rob Parrish, Andy Simmonett
                          and Daniel G. A. Smith
                              RKS Reference
                        4 Threads,   7629 MiB Core
         ---------------------------------------------------------

  ==> Geometry <==

    Molecular point group: c1
    Full point group: C1

    Geometry (in Angstrom), charge = 0, multiplicity = 1:

       Center              X                  Y                   Z               Mass       
    ------------   -----------------  -----------------  -----------------  -----------------
         C           -1.013912656283     0.000115709716    -0.332014979207    12.000000000000
         C           -0.301010062783     1.249157296016     0.187915002093    12.000000000000
         C           -0.301184124983    -1.249051731184     0.187868769393    12.000000000000
         C            1.168350045017     1.251662108616    -0.223310195607    12.000000000000
         C            1.168180609217    -1.251777254484    -0.223301196907    12.000000000000
         C            1.870320668917    -0.000092369584     0.293495468793    12.000000000000
         C           -2.483452043583     0.000022294816     0.079521647093    12.000000000000
         H           -0.958208048383     0.000200589116    -1.426963284107     1.007825032230
         H           -0.371856047683     1.274037897316     1.278180996893     1.007825032230
         H           -0.795153107983     2.143598579316    -0.198593865607     1.007825032230
         H           -0.795453175683    -2.143412795884    -0.198650043807     1.007825032230
         H           -0.372030975883    -1.273883958784     1.278152898793     1.007825032230
         H            1.661616296917     2.144320271716     0.167812098993     1.007825032230
         H            1.239165746717     1.281510423416    -1.313372591407     1.007825032230
         H            1.239017244817    -1.281714595084    -1.313342111307     1.007825032230
         H            1.661234395417    -2.144491886784     0.167917811593     1.007825032230
         H            2.915409340417    -0.000124512484    -0.023881546507     1.007825032230
         H            1.852207721117    -0.000122469284     1.385966808093     1.007825032230
         H           -2.574300602483     0.000490054916     1.163975869893     1.007825032230
         H           -2.989926624783     0.881922663016    -0.306604833907     1.007825032230
         H           -2.989234811083    -0.882759548284    -0.305471275107     1.007825032230

  Running in c1 symmetry.

  Rotational constants: A =      0.14207  B =      0.07393  C =      0.05389 [cm^-1]
  Rotational constants: A =   4259.18083  B =   2216.21867  C =   1615.44412 [MHz]
  Nuclear repulsion =  330.549952087310203

  Charge       = 0
  Multiplicity = 1
  Electrons    = 56
  Nalpha       = 28
  Nbeta        = 28

  ==> Algorithm <==

  SCF Algorithm Type is DF.
  DIIS enabled.
  MOM disabled.
  Fractional occupation disabled.
  Guess Type is SAD.
  Energy threshold   = 1.00e-08
  Density threshold  = 1.00e-08
  Integral threshold = 0.00e+00

  ==> Primary Basis <==

  Basis Set: DEF2-TZVP
    Blend: DEF2-TZVP
    Number of shells: 133
    Number of basis function: 301
    Number of Cartesian functions: 336
    Spherical Harmonics?: true
    Max angular momentum: 3

  ==> DFT Potential <==

   => Composite Functional: PBE0 <= 

    PBE0 Hyb-GGA Exchange-Correlation Functional

    C. Adamo and V. Barone, J. Chem. Phys. 110, 6158 (1999)
    M. Ernzerhof and G. E. Scuseria, J. Chem. Phys. 110, 5029 (1999)

    Deriv               =              1
    GGA                 =           TRUE
    Meta                =          FALSE

    Exchange Hybrid     =           TRUE
    MP2 Hybrid          =          FALSE

   => Exchange Functionals <=

    0.7500   Perdew, Burke & Ernzerhof

   => Exact (HF) Exchange <=

    0.2500               HF 

   => Correlation Functionals <=

    1.0000   Perdew, Burke & Ernzerhof

   => Molecular Quadrature <=

    Radial Scheme          =       TREUTLER
    Pruning Scheme         =           FLAT
    Nuclear Scheme         =       TREUTLER

    BS radius alpha        =              1
    Pruning alpha          =              1
    Radial Points          =             75
    Spherical Points       =            302
    Total Points           =         472038
    Total Blocks           =           3463
    Max Points             =            256
    Max Functions          =            291

   => Loading Basis Set <=

    Name: (DEF2-TZVP AUX)
    Role: JKFIT
    Keyword: DF_BASIS_SCF
    atoms 1-7  entry C          line   203 file /usr/share/psi4/basis/def2-tzvp-jkfit.gbs 
    atoms 8-21 entry H          line    23 file /usr/share/psi4/basis/def2-tzvp-jkfit.gbs 

  ==> Pre-Iterations <==

   -------------------------------------------------------
    Irrep   Nso     Nmo     Nalpha   Nbeta   Ndocc  Nsocc
   -------------------------------------------------------
     A        301     301       0       0       0       0
   -------------------------------------------------------
    Total     301     301      28      28      28       0
   -------------------------------------------------------

  ==> Integral Setup <==

  DFHelper Memory: AOs need 0.533 GiB; user supplied 2.608 GiB. Using in-core AOs.

  ==> MemDFJK: Density-Fitted J/K Matrices <==

    J tasked:                   Yes
    K tasked:                   Yes
    wK tasked:                   No
    OpenMP threads:               4
    Memory [MiB]:              2670
    Algorithm:                 Core
    Schwarz Cutoff:           1E-12
    Mask sparsity (%):       3.1346
    Fitting Condition:        1E-10

   => Auxiliary Basis Set <=

  Basis Set: (DEF2-TZVP AUX)
    Blend: DEF2-TZVP-JKFIT
    Number of shells: 259
    Number of basis function: 777
    Number of Cartesian functions: 903
    Spherical Harmonics?: true
    Max angular momentum: 4

  Cached 100.0% of DFT collocation blocks in 2.980 [GiB].

  Minimum eigenvalue in the overlap matrix is 9.7560877664E-05.
  Using Symmetric Orthogonalization.

  SCF Guess: Superposition of Atomic Densities via on-the-fly atomic UHF.

  ==> Iterations <==

                           Total Energy        Delta E     RMS |[F,P]|

   @DF-RKS iter SAD:  -274.61962067504538   -2.74620e+02   0.00000e+00 
   @DF-RKS iter   1:  -274.14381033247582    4.75810e-01   4.11478e-03 DIIS
   @DF-RKS iter   2:  -273.38805277721474    7.55758e-01   5.67425e-03 DIIS
   @DF-RKS iter   3:  -274.93197349660801   -1.54392e+00   5.83597e-04 DIIS
   @DF-RKS iter   4:  -274.94349000640204   -1.15165e-02   2.73715e-04 DIIS
   @DF-RKS iter   5:  -274.94654101397765   -3.05101e-03   5.38437e-05 DIIS
   @DF-RKS iter   6:  -274.94666070336154   -1.19689e-04   8.13746e-06 DIIS
   @DF-RKS iter   7:  -274.94666353988691   -2.83653e-06   2.77410e-06 DIIS
   @DF-RKS iter   8:  -274.94666386199725   -3.22110e-07   6.94839e-07 DIIS
   @DF-RKS iter   9:  -274.94666388119651   -1.91993e-08   1.61963e-07 DIIS
   @DF-RKS iter  10:  -274.94666388237044   -1.17393e-09   3.78837e-08 DIIS
   @DF-RKS iter  11:  -274.94666388243559   -6.51426e-11   9.46795e-09 DIIS
  Energy and wave function converged.


  ==> Post-Iterations <==

    Orbital Energies [Eh]
    ---------------------

    Doubly Occupied:                                                      

       1A    -10.216205     2A    -10.207974     3A    -10.207854  
       4A    -10.207614     5A    -10.206817     6A    -10.206805  
       7A    -10.200208     8A     -0.860562     9A     -0.784813  
      10A     -0.759964    11A     -0.691521    12A     -0.622468  
      13A     -0.597469    14A     -0.567837    15A     -0.487143  
      16A     -0.460797    17A     -0.452901    18A     -0.444929  
      19A     -0.422672    20A     -0.394841    21A     -0.384908  
      22A     -0.373950    23A     -0.356763    24A     -0.349185  
      25A     -0.339784    26A     -0.326222    27A     -0.301805  
      28A     -0.298971  

    Virtual:                                                              

      29A      0.045804    30A      0.060848    31A      0.064705  
      32A      0.076103    33A      0.103981    34A      0.111970  
      35A      0.116637    36A      0.119115    37A      0.125018  
      38A      0.132242    39A      0.135012    40A      0.139180  
      41A      0.155151    42A      0.156054    43A      0.176433  
      44A      0.190059    45A      0.198674    46A      0.211837  
      47A      0.214208    48A      0.232642    49A      0.240769  
      50A      0.254041    51A      0.260043    52A      0.263808  
      53A      0.275775    54A      0.290504    55A      0.292294  
      56A      0.321495    57A      0.339484    58A      0.346957  
      59A      0.359783    60A      0.375412    61A      0.399031  
      62A      0.413454    63A      0.419631    64A      0.431280  
      65A      0.438579    66A      0.442552    67A      0.443666  
      68A      0.448186    69A      0.453107    70A      0.457276  
      71A      0.460710    72A      0.464429    73A      0.472383  
      74A      0.485947    75A      0.491010    76A      0.494902  
      77A      0.500736    78A      0.502458    79A      0.513345  
      80A      0.514631    81A      0.525533    82A      0.529709  
      83A      0.589613    84A      0.627913    85A      0.644084  
      86A      0.678762    87A      0.695024    88A      0.695516  
      89A      0.707197    90A      0.766180    91A      0.778684  
      92A      0.794684    93A      0.811527    94A      0.820751  
      95A      0.825217    96A      0.852040    97A      0.853781  
      98A      0.873752    99A      0.876781   100A      0.919629  
     101A      0.923577   102A      0.960278   103A      0.961302  
     104A      1.009047   105A      1.027805   106A      1.029905  
     107A      1.058944   108A      1.059414   109A      1.075223  
     110A      1.096434   111A      1.141348   112A      1.161147  
     113A      1.163406   114A      1.184352   115A      1.185487  
     116A      1.211078   117A      1.215009   118A      1.229230  
     119A      1.270291   120A      1.286121   121A      1.292160  
     122A      1.315999   123A      1.330118   124A      1.386227  
     125A      1.399792   126A      1.432264   127A      1.460262  
     128A      1.524697   129A      1.553255   130A      1.560384  
     131A      1.573420   132A      1.607263   133A      1.613530  
     134A      1.625646   135A      1.625874   136A      1.633083  
     137A      1.636090   138A      1.657031   139A      1.667395  
     140A      1.683783   141A      1.690548   142A      1.727800  
     143A      1.743784   144A      1.748795   145A      1.766413  
     146A      1.786250   147A      1.790963   148A      1.824442  
     149A      1.873410   150A      1.878162   151A      1.885686  
     152A      1.916034   153A      1.977701   154A      1.992083  
     155A      2.002912   156A      2.017480   157A      2.030147  
     158A      2.034970   159A      2.091004   160A      2.115259  
     161A      2.133032   162A      2.164792   163A      2.169110  
     164A      2.204335   165A      2.222477   166A      2.225441  
     167A      2.256696   168A      2.292249   169A      2.324828  
     170A      2.343083   171A      2.349871   172A      2.370612  
     173A      2.411203   174A      2.414091   175A      2.428290  
     176A      2.437940   177A      2.454890   178A      2.465431  
     179A      2.509735   180A      2.544933   181A      2.545510  
     182A      2.550474   183A      2.572301   184A      2.581406  
     185A      2.582256   186A      2.591760   187A      2.604898  
     188A      2.610080   189A      2.618285   190A      2.637538  
     191A      2.670918   192A      2.672072   193A      2.691517  
     194A      2.700979   195A      2.709964   196A      2.719997  
     197A      2.732740   198A      2.754106   199A      2.770700  
     200A      2.782315   201A      2.808492   202A      2.818303  
     203A      2.827760   204A      2.848742   205A      2.892111  
     206A      2.934311   207A      2.945068   208A      2.962911  
     209A      2.970883   210A      2.995786   211A      3.008260  
     212A      3.047115   213A      3.068317   214A      3.110132  
     215A      3.121645   216A      3.151107   217A      3.152686  
     218A      3.160824   219A      3.185975   220A      3.195322  
     221A      3.202115   222A      3.215631   223A      3.245075  
     224A      3.270598   225A      3.308049   226A      3.312101  
     227A      3.321845   228A      3.345295   229A      3.354945  
     230A      3.387879   231A      3.405589   232A      3.416177  
     233A      3.426601   234A      3.433689   235A      3.462077  
     236A      3.487595   237A      3.507214   238A      3.521759  
     239A      3.529026   240A      3.534241   241A      3.557575  
     242A      3.565150   243A      3.565355   244A      3.573999  
     245A      3.619786   246A      3.623824   247A      3.657932  
     248A      3.661051   249A      3.678854   250A      3.689796  
     251A      3.719514   252A      3.757991   253A      3.764067  
     254A      3.813158   255A      3.819592   256A      3.860854  
     257A      3.937534   258A      3.954942   259A      3.992462  
     260A      4.027007   261A      4.040009   262A      4.041160  
     263A      4.086913   264A      4.086942   265A      4.126219  
     266A      4.160559   267A      4.175074   268A      4.178330  
     269A      4.219836   270A      4.253344   271A      4.297291  
     272A      4.334014   273A      4.357578   274A      4.371180  
     275A      4.421156   276A      4.439492   277A      4.449485  
     278A      4.508511   279A      4.523619   280A      4.602604  
     281A      4.611883   282A      4.654843   283A      4.685842  
     284A      4.726310   285A      4.728921   286A      4.780117  
     287A      4.808522   288A      4.875659   289A      4.909306  
     290A      4.916097   291A      5.008439   292A      5.115606  
     293A      5.121576   294A      5.206858   295A     22.471993  
     296A     22.531879   297A     22.567194   298A     22.584596  
     299A     22.613332   300A     22.710274   301A     22.795963  

    Final Occupation by Irrep:
              A 
    DOCC [    28 ]

  @DF-RKS Final Energy:  -274.94666388243559

   => Energetics <=

    Nuclear Repulsion Energy =            330.5499520873102028
    One-Electron Energy =               -1024.1898830354441543
    Two-Electron Energy =                 451.3701947193484898
    DFT Exchange-Correlation Energy =     -32.6769276536501536
    Empirical Dispersion Energy =           0.0000000000000000
    VV10 Nonlocal Energy =                  0.0000000000000000
    Total Energy =                       -274.9466638824355869

Computation Completed


Properties will be evaluated at   0.000000,   0.000000,   0.000000 [a0]

Properties computed using the SCF density matrix

  Nuclear Dipole Moment: [e a0]
     X:    -1.1976      Y:    -0.0004      Z:     0.3329

  Electronic Dipole Moment: [e a0]
     X:     1.2349      Y:     0.0004      Z:    -0.3644

  Dipole Moment: [e a0]
     X:     0.0373      Y:    -0.0000      Z:    -0.0315     Total:     0.0488

  Dipole Moment: [D]
     X:     0.0948      Y:    -0.0000      Z:    -0.0800     Total:     0.1240


*** tstop() called on lenovo at Tue Jan 18 21:21:05 2022
Module time:
	user time   =     101.58 seconds =       1.69 minutes
	system time =       1.79 seconds =       0.03 minutes
	total time  =         29 seconds =       0.48 minutes
Total time:
	user time   =     101.58 seconds =       1.69 minutes
	system time =       1.79 seconds =       0.03 minutes
	total time  =         29 seconds =       0.48 minutes

*** tstart() called on lenovo
*** at Tue Jan 18 21:21:05 2022


         ------------------------------------------------------------
                                   SCF GRAD                          
                          Rob Parrish, Justin Turney,                
                       Andy Simmonett, and Alex Sokolov              
         ------------------------------------------------------------

  ==> Geometry <==

    Molecular point group: c1
    Full point group: C1

    Geometry (in Angstrom), charge = 0, multiplicity = 1:

       Center              X                  Y                   Z               Mass       
    ------------   -----------------  -----------------  -----------------  -----------------
         C           -1.013912656283     0.000115709716    -0.332014979207    12.000000000000
         C           -0.301010062783     1.249157296016     0.187915002093    12.000000000000
         C           -0.301184124983    -1.249051731184     0.187868769393    12.000000000000
         C            1.168350045017     1.251662108616    -0.223310195607    12.000000000000
         C            1.168180609217    -1.251777254484    -0.223301196907    12.000000000000
         C            1.870320668917    -0.000092369584     0.293495468793    12.000000000000
         C           -2.483452043583     0.000022294816     0.079521647093    12.000000000000
         H           -0.958208048383     0.000200589116    -1.426963284107     1.007825032230
         H           -0.371856047683     1.274037897316     1.278180996893     1.007825032230
         H           -0.795153107983     2.143598579316    -0.198593865607     1.007825032230
         H           -0.795453175683    -2.143412795884    -0.198650043807     1.007825032230
         H           -0.372030975883    -1.273883958784     1.278152898793     1.007825032230
         H            1.661616296917     2.144320271716     0.167812098993     1.007825032230
         H            1.239165746717     1.281510423416    -1.313372591407     1.007825032230
         H            1.239017244817    -1.281714595084    -1.313342111307     1.007825032230
         H            1.661234395417    -2.144491886784     0.167917811593     1.007825032230
         H            2.915409340417    -0.000124512484    -0.023881546507     1.007825032230
         H            1.852207721117    -0.000122469284     1.385966808093     1.007825032230
         H           -2.574300602483     0.000490054916     1.163975869893     1.007825032230
         H           -2.989926624783     0.881922663016    -0.306604833907     1.007825032230
         H           -2.989234811083    -0.882759548284    -0.305471275107     1.007825032230

  Nuclear repulsion =  330.549952087310203

  ==> Basis Set <==

  Basis Set: DEF2-TZVP
    Blend: DEF2-TZVP
    Number of shells: 133
    Number of basis function: 301
    Number of Cartesian functions: 336
    Spherical Harmonics?: true
    Max angular momentum: 3

  ==> DFJKGrad: Density-Fitted SCF Gradients <==

    Gradient:                    1
    J tasked:                  Yes
    K tasked:                  Yes
    wK tasked:                  No
    OpenMP threads:              4
    Integrals threads:           4
    Memory [MiB]:             5722
    Schwarz Cutoff:          0E+00
    Fitting Condition:       1E-10

   => Auxiliary Basis Set <=

  Basis Set: (DEF2-TZVP AUX)
    Blend: DEF2-TZVP-JKFIT
    Number of shells: 259
    Number of basis function: 777
    Number of Cartesian functions: 903
    Spherical Harmonics?: true
    Max angular momentum: 4

  ==> DFT Potential <==

   => Composite Functional: PBE0 <= 

    PBE0 Hyb-GGA Exchange-Correlation Functional

    C. Adamo and V. Barone, J. Chem. Phys. 110, 6158 (1999)
    M. Ernzerhof and G. E. Scuseria, J. Chem. Phys. 110, 5029 (1999)

    Deriv               =              1
    GGA                 =           TRUE
    Meta                =          FALSE

    Exchange Hybrid     =           TRUE
    MP2 Hybrid          =          FALSE

   => Exchange Functionals <=

    0.7500   Perdew, Burke & Ernzerhof

   => Exact (HF) Exchange <=

    0.2500               HF 

   => Correlation Functionals <=

    1.0000   Perdew, Burke & Ernzerhof

   => Molecular Quadrature <=

    Radial Scheme          =       TREUTLER
    Pruning Scheme         =           FLAT
    Nuclear Scheme         =       TREUTLER

    BS radius alpha        =              1
    Pruning alpha          =              1
    Radial Points          =             75
    Spherical Points       =            302
    Total Points           =         472038
    Total Blocks           =           3463
    Max Points             =            256
    Max Functions          =            291


  -Total Gradient:
     Atom            X                  Y                   Z
    ------   -----------------  -----------------  -----------------
       1        0.004822409385     0.000003705735    -0.011597141224
       2       -0.003437310190     0.003025440113     0.010331275010
       3       -0.003449511227    -0.003043422674     0.010320017231
       4        0.001229286038     0.001668758295    -0.008562104216
       5        0.001228789239    -0.001676765739    -0.008568982053
       6        0.002010451236     0.000007131627     0.008809813642
       7       -0.007414800179     0.000010271327     0.004929641398
       8       -0.000620613470     0.000007688035     0.001117196862
       9        0.001236765127    -0.000757930637    -0.002591226757
      10        0.001597883303    -0.001672275796    -0.001045663837
      11        0.001598979820     0.001672858130    -0.001045730427
      12        0.001239610404     0.000762823615    -0.002581166203
      13       -0.001056682854    -0.001668944859     0.001304505314
      14       -0.000802247804    -0.001228465356     0.002060899432
      15       -0.000805747541     0.001227456108     0.002071255018
      16       -0.001067794091     0.001675429378     0.001304121680
      17       -0.001831040616     0.000004323801    -0.001370926465
      18       -0.001253214641    -0.000003174217    -0.002355062610
      19        0.000993036546    -0.000015495193    -0.003588256884
      20        0.002876940130    -0.002518285794     0.000520428409
      21        0.002889635374     0.002518912626     0.000539542546


*** tstop() called on lenovo at Tue Jan 18 21:21:18 2022
Module time:
	user time   =      44.63 seconds =       0.74 minutes
	system time =       0.58 seconds =       0.01 minutes
	total time  =         13 seconds =       0.22 minutes
Total time:
	user time   =     146.22 seconds =       2.44 minutes
	system time =       2.37 seconds =       0.04 minutes
	total time  =         42 seconds =       0.70 minutes

			-----------------------------------------
			 OPTKING 2.0: for geometry optimizations 
			  - R.A. King,  Bethel University        
			-----------------------------------------

	Internal coordinates to be generated automatically.
	Detected frag 1 with atoms:  1 2 3 4 5 6 7 8 9 10 11 12 13 14 15 16 17 18 19 20
	 21
	---Fragment 1 Bond Connectivity---
	 1 : 2 3 7 8
	 2 : 1 4 9 10
	 3 : 1 5 11 12
	 4 : 2 6 13 14
	 5 : 3 6 15 16
	 6 : 4 5 17 18
	 7 : 1 19 20 21
	 8 : 1
	 9 : 2
	 10 : 2
	 11 : 3
	 12 : 3
	 13 : 4
	 14 : 4
	 15 : 5
	 16 : 5
	 17 : 6
	 18 : 6
	 19 : 7
	 20 : 7
	 21 : 7

	---Fragment 1 Geometry and Gradient---
	 C          -1.9160172355        0.0002186597       -0.6274173803
	 C          -0.5688265797        2.3605651771        0.3551078888
	 C          -0.5691555096       -2.3603656885        0.3550205217
	 C           2.2078616037        2.3652985869       -0.4219951107
	 C           2.2075414165       -2.3655161811       -0.4219781056
	 C           3.5343938310       -0.0001745532        0.5546260551
	 C          -4.6930442081        0.0000421311        0.1502741341
	 H          -1.8107507827        0.0003790585       -2.6965697980
	 H          -0.7027060882        2.4075826994        2.4154120229
	 H          -1.5026216019        4.0508142378       -0.3752880162
	 H          -1.5031886477       -4.0504631580       -0.3753941776
	 H          -0.7030366546       -2.4072917977        2.4153589252
	 H           3.1399997268        4.0521780388        0.3171189076
	 H           2.3416838853        2.4217037272       -2.4819144984
	 H           2.3414032574       -2.4220895557       -2.4818568994
	 H           3.1392780375       -4.0525023443        0.3173186755
	 H           5.5093251970       -0.0002352945       -0.0451295824
	 H           3.5001653204       -0.0002314334        2.6190976863
	 H          -4.8647231033        0.0009260696        2.1995956107
	 H          -5.6501424561        1.6665922969       -0.5793991648
	 H          -5.6488351176       -1.6681737809       -0.5772570491
	             0.0048224094        0.0000037057       -0.0115971412
	            -0.0034373102        0.0030254401        0.0103312750
	            -0.0034495112       -0.0030434227        0.0103200172
	             0.0012292860        0.0016687583       -0.0085621042
	             0.0012287892       -0.0016767657       -0.0085689821
	             0.0020104512        0.0000071316        0.0088098136
	            -0.0074148002        0.0000102713        0.0049296414
	            -0.0006206135        0.0000076880        0.0011171969
	             0.0012367651       -0.0007579306       -0.0025912268
	             0.0015978833       -0.0016722758       -0.0010456638
	             0.0015989798        0.0016728581       -0.0010457304
	             0.0012396104        0.0007628236       -0.0025811662
	            -0.0010566829       -0.0016689449        0.0013045053
	            -0.0008022478       -0.0012284654        0.0020608994
	            -0.0008057475        0.0012274561        0.0020712550
	            -0.0010677941        0.0016754294        0.0013041217
	            -0.0018310406        0.0000043238       -0.0013709265
	            -0.0012532146       -0.0000031742       -0.0023550626
	             0.0009930365       -0.0000154952       -0.0035882569
	             0.0028769401       -0.0025182858        0.0005204284
	             0.0028896354        0.0025189126        0.0005395425

	Previous optimization step data not found.  Starting new optimization.

	---Fragment 1 Intrafragment Coordinates---
	 - Coordinate -           - BOHR/RAD -       - ANG/DEG -
	 R(1,2)           =         2.889899	       1.529269
	 R(1,3)           =         2.889910	       1.529274
	 R(1,7)           =         2.883866	       1.526076
	 R(1,8)           =         2.071828	       1.096364
	 R(2,4)           =         2.883385	       1.525822
	 R(2,9)           =         2.065185	       1.092849
	 R(2,10)          =         2.064556	       1.092516
	 R(3,5)           =         2.883366	       1.525812
	 R(3,11)          =         2.064547	       1.092511
	 R(3,12)          =         2.065217	       1.092866
	 R(4,6)           =         2.882523	       1.525366
	 R(4,13)          =         2.064154	       1.092303
	 R(4,14)          =         2.065032	       1.092768
	 R(5,6)           =         2.882557	       1.525383
	 R(5,15)          =         2.064999	       1.092750
	 R(5,16)          =         2.064126	       1.092288
	 R(6,17)          =         2.063991	       1.092217
	 R(6,18)          =         2.064755	       1.092621
	 R(7,19)          =         2.056500	       1.088253
	 R(7,20)          =         2.055687	       1.087823
	 R(7,21)          =         2.055671	       1.087814
	 B(1,2,4)         =         1.937599	     111.016266
	 B(1,2,9)         =         1.904513	     109.120563
	 B(1,2,10)        =         1.915109	     109.727643
	 B(1,3,5)         =         1.937633	     111.018201
	 B(1,3,11)        =         1.915122	     109.728435
	 B(1,3,12)        =         1.904452	     109.117035
	 B(1,7,19)        =         1.927425	     110.433303
	 B(1,7,20)        =         1.931109	     110.644410
	 B(1,7,21)        =         1.930864	     110.630373
	 B(2,1,3)         =         1.911675	     109.530890
	 B(2,1,7)         =         1.936137	     110.932507
	 B(2,1,8)         =         1.892094	     108.409007
	 B(2,4,6)         =         1.928912	     110.518491
	 B(2,4,13)        =         1.917406	     109.859251
	 B(2,4,14)        =         1.908471	     109.347347
	 B(3,1,7)         =         1.935920	     110.920064
	 B(3,1,8)         =         1.892200	     108.415096
	 B(3,5,6)         =         1.928913	     110.518602
	 B(3,5,15)        =         1.908459	     109.346670
	 B(3,5,16)        =         1.917330	     109.854890
	 B(4,2,9)         =         1.908440	     109.345539
	 B(4,2,10)        =         1.916512	     109.808056
	 B(4,6,5)         =         1.924914	     110.289458
	 B(4,6,17)        =         1.919749	     109.993542
	 B(4,6,18)        =         1.908324	     109.338885
	 B(5,3,11)        =         1.916521	     109.808563
	 B(5,3,12)        =         1.908401	     109.343299
	 B(5,6,17)        =         1.919809	     109.996938
	 B(5,6,18)        =         1.908263	     109.335435
	 B(6,4,13)        =         1.919310	     109.968357
	 B(6,4,14)        =         1.907694	     109.302837
	 B(6,5,15)        =         1.907735	     109.305176
	 B(6,5,16)        =         1.919328	     109.969416
	 B(7,1,8)         =         1.894677	     108.556984
	 B(9,2,10)        =         1.880716	     107.757104
	 B(11,3,12)       =         1.880760	     107.759613
	 B(13,4,14)       =         1.881363	     107.794152
	 B(15,5,16)       =         1.881391	     107.795741
	 B(17,6,18)       =         1.882208	     107.842577
	 B(19,7,20)       =         1.890724	     108.330534
	 B(19,7,21)       =         1.890424	     108.313300
	 B(20,7,21)       =         1.892098	     108.409215
	 D(1,2,4,6)       =        -1.008308	     -57.771820
	 D(1,2,4,13)      =        -3.129315	    -179.296535
	 D(1,2,4,14)      =         1.092434	      62.591836
	 D(1,3,5,6)       =         1.008233	      57.767489
	 D(1,3,5,15)      =        -1.092553	     -62.598699
	 D(1,3,5,16)      =         3.129213	     179.290720
	 D(2,1,3,5)       =        -0.999430	     -57.263118
	 D(2,1,3,11)      =        -3.121132	    -178.827670
	 D(2,1,3,12)      =         1.105071	      63.315878
	 D(2,1,7,19)      =        -1.063814	     -60.952070
	 D(2,1,7,20)      =         1.029439	      58.982494
	 D(2,1,7,21)      =         3.126652	     179.143967
	 D(2,4,6,5)       =         0.999696	      57.278373
	 D(2,4,6,17)      =         3.120259	     178.777662
	 D(2,4,6,18)      =        -1.099161	     -62.977261
	 D(3,1,2,4)       =         0.999454	      57.264481
	 D(3,1,2,9)       =        -1.105114	     -63.318376
	 D(3,1,2,10)      =         3.121113	     178.826593
	 D(3,1,7,19)      =         1.064899	      61.014203
	 D(3,1,7,20)      =        -3.125034	    -179.051233
	 D(3,1,7,21)      =        -1.027820	     -58.889761
	 D(3,5,6,4)       =        -0.999654	     -57.275946
	 D(3,5,6,17)      =        -3.120181	    -178.773218
	 D(3,5,6,18)      =         1.099239	      62.981763
	 D(4,2,1,7)       =        -3.140926	    -179.961790
	 D(4,2,1,8)       =        -1.062137	     -60.855940
	 D(4,6,5,15)      =         1.101566	      63.115067
	 D(4,6,5,16)      =        -3.119452	    -178.731451
	 D(5,3,1,7)       =         3.140821	     179.955764
	 D(5,3,1,8)       =         1.062094	      60.853510
	 D(5,6,4,13)      =         3.119577	     178.738569
	 D(5,6,4,14)      =        -1.101511	     -63.111913
	 D(6,4,2,9)       =         1.093935	      62.677873
	 D(6,4,2,10)      =        -3.129146	    -179.286845
	 D(6,5,3,11)      =         3.129116	     179.285123
	 D(6,5,3,12)      =        -1.093930	     -62.677579
	 D(7,1,2,9)       =         1.037692	      59.455353
	 D(7,1,2,10)      =        -1.019267	     -58.399678
	 D(7,1,3,11)      =         1.019119	      58.391212
	 D(7,1,3,12)      =        -1.037864	     -59.465240
	 D(8,1,2,9)       =         3.116481	     178.561203
	 D(8,1,2,10)      =         1.059523	      60.706173
	 D(8,1,3,11)      =        -1.059608	     -60.711042
	 D(8,1,3,12)      =        -3.116591	    -178.567495
	 D(8,1,7,19)      =        -3.141050	    -179.968911
	 D(8,1,7,20)      =        -1.047797	     -60.034347
	 D(8,1,7,21)      =         1.049416	      60.127126
	 D(9,2,4,13)      =        -1.027071	     -58.846841
	 D(9,2,4,14)      =        -3.088508	    -176.958471
	 D(10,2,4,13)     =         1.033033	      59.188441
	 D(10,2,4,14)     =        -1.028404	     -58.923188
	 D(11,3,5,15)     =         1.028329	      58.918935
	 D(11,3,5,16)     =        -1.033089	     -59.191646
	 D(12,3,5,15)     =         3.088469	     176.956234
	 D(12,3,5,16)     =         1.027050	      58.845652
	 D(13,4,6,17)     =        -1.043046	     -59.762142
	 D(13,4,6,18)     =         1.020720	      58.482935
	 D(14,4,6,17)     =         1.019052	      58.387377
	 D(14,4,6,18)     =         3.082818	     176.632454
	 D(15,5,6,17)     =        -1.018962	     -58.382205
	 D(15,5,6,18)     =        -3.082727	    -176.627224
	 D(16,5,6,17)     =         1.043206	      59.771277
	 D(16,5,6,18)     =        -1.020559	     -58.473742

	Current energy   :      -274.9466638824

	Generating empirical Hessian (Schlegel '84) for each fragment.
	Taking RFO optimization step.
	Going to follow RFO solution 1.
	Using RFO vector 1.
	Norm of target step-size    0.25423
	Projected energy change by RFO approximation:        -0.0000002923

	Back-transformation to cartesian coordinates...
	Successfully converged to displaced geometry.

	--- Internal Coordinate Step in ANG or DEG, aJ/ANG or AJ/DEG ---
	 ---------------------------------------------------------------------------
	   Coordinate                Previous        Force       Change         New 
	   ----------                --------       ------       ------       ------
	    1 R(1,2)          =      1.529269    -0.005305    -0.001254     1.528014
	    2 R(1,3)          =      1.529274    -0.005286    -0.001253     1.528022
	    3 R(1,7)          =      1.526076    -0.010513    -0.002255     1.523822
	    4 R(1,8)          =      1.096364     0.009453     0.001773     1.098137
	    5 R(2,4)          =      1.525822     0.003370     0.000721     1.526543
	    6 R(2,9)          =      1.092849     0.022102     0.004097     1.096946
	    7 R(2,10)         =      1.092516     0.014189     0.002627     1.095144
	    8 R(3,5)          =      1.525812     0.003433     0.000736     1.526548
	    9 R(3,11)         =      1.092511     0.014197     0.002629     1.095140
	   10 R(3,12)         =      1.092866     0.022021     0.004082     1.096948
	   11 R(4,6)          =      1.525366     0.000013     0.000110     1.525476
	   12 R(4,13)         =      1.092303     0.011318     0.002094     1.094398
	   13 R(4,14)         =      1.092768     0.017638     0.003269     1.096037
	   14 R(5,6)          =      1.525383    -0.000061     0.000091     1.525474
	   15 R(5,15)         =      1.092750     0.017726     0.003285     1.096035
	   16 R(5,16)         =      1.092288     0.011403     0.002110     1.094398
	   17 R(6,17)         =      1.092217     0.011145     0.002062     1.094279
	   18 R(6,18)         =      1.092621     0.019233     0.003563     1.096184
	   19 R(7,19)         =      1.088253     0.030140     0.005503     1.093756
	   20 R(7,20)         =      1.087823     0.029381     0.005357     1.093180
	   21 R(7,21)         =      1.087814     0.029487     0.005376     1.093190
	   22 B(1,2,4)        =    111.016266     0.000116     1.255714   112.271981
	   23 B(1,2,9)        =    109.120563    -0.000072    -0.698926   108.421637
	   24 B(1,2,10)       =    109.727643    -0.000016     0.094981   109.822624
	   25 B(1,3,5)        =    111.018201     0.000116     1.255725   112.273926
	   26 B(1,3,11)       =    109.728435    -0.000016     0.093515   109.821950
	   27 B(1,3,12)       =    109.117035    -0.000072    -0.696776   108.420259
	   28 B(1,7,19)       =    110.433303     0.000019     0.010293   110.443596
	   29 B(1,7,20)       =    110.644410     0.000127     0.627089   111.271499
	   30 B(1,7,21)       =    110.630373     0.000128     0.637393   111.267766
	   31 B(2,1,3)        =    109.530890    -0.000030     0.799889   110.330779
	   32 B(2,1,7)        =    110.932507     0.000074     0.713901   111.646407
	   33 B(2,1,8)        =    108.409007    -0.000049    -0.952182   107.456826
	   34 B(2,4,6)        =    110.518491     0.000004     0.895264   111.413755
	   35 B(2,4,13)       =    109.859251     0.000052     0.414315   110.273566
	   36 B(2,4,14)       =    109.347347    -0.000021    -0.342308   109.005039
	   37 B(3,1,7)        =    110.920064     0.000076     0.724255   111.644319
	   38 B(3,1,8)        =    108.415096    -0.000050    -0.956163   107.458933
	   39 B(3,5,6)        =    110.518602     0.000004     0.894555   111.413157
	   40 B(3,5,15)       =    109.346670    -0.000020    -0.341554   109.005116
	   41 B(3,5,16)       =    109.854890     0.000052     0.418725   110.273614
	   42 B(4,2,9)        =    109.345539    -0.000025    -0.193438   109.152100
	   43 B(4,2,10)       =    109.808056     0.000034     0.507067   110.315123
	   44 B(4,6,5)        =    110.289458     0.000035     0.921404   111.210863
	   45 B(4,6,17)       =    109.993542     0.000040     0.379591   110.373133
	   46 B(4,6,18)       =    109.338885    -0.000029    -0.345357   108.993528
	   47 B(5,3,11)       =    109.808563     0.000034     0.505906   110.314469
	   48 B(5,3,12)       =    109.343299    -0.000025    -0.191060   109.152239
	   49 B(5,6,17)       =    109.996938     0.000039     0.376144   110.373082
	   50 B(5,6,18)       =    109.335435    -0.000029    -0.342736   108.992698
	   51 B(6,4,13)       =    109.968357     0.000038     0.390185   110.358542
	   52 B(6,4,14)       =    109.302837    -0.000009    -0.339173   108.963665
	   53 B(6,5,15)       =    109.305176    -0.000009    -0.341450   108.963726
	   54 B(6,5,16)       =    109.969416     0.000038     0.389015   110.358431
	   55 B(7,1,8)        =    108.556984    -0.000026    -0.461525   108.095459
	   56 B(9,2,10)       =    107.757104    -0.000042    -1.078419   106.678685
	   57 B(11,3,12)      =    107.759613    -0.000042    -1.080385   106.679228
	   58 B(13,4,14)      =    107.794152    -0.000067    -1.101506   106.692646
	   59 B(15,5,16)      =    107.795741    -0.000067    -1.102519   106.693222
	   60 B(17,6,18)      =    107.842577    -0.000059    -1.067317   106.775260
	   61 B(19,7,20)      =    108.330534    -0.000087    -0.483440   107.847094
	   62 B(19,7,21)      =    108.313300    -0.000086    -0.469559   107.843741
	   63 B(20,7,21)      =    108.409215    -0.000111    -0.384637   108.024578
	   64 D(1,2,4,6)      =    -57.771820     0.000020     2.679824   -55.091996
	   65 D(1,2,4,13)     =   -179.296535     0.000000     1.300534  -177.996001
	   66 D(1,2,4,14)     =     62.591836     0.000015     2.598680    65.190516
	   67 D(1,3,5,6)      =     57.767489    -0.000020    -2.679076    55.088413
	   68 D(1,3,5,15)     =    -62.598699    -0.000014    -2.595152   -65.193851
	   69 D(1,3,5,16)     =    179.290720    -0.000000    -1.298825   177.991895
	   70 D(2,1,3,5)      =    -57.263118     0.000030     2.917462   -54.345656
	   71 D(2,1,3,11)     =   -178.827670     0.000005     1.359127  -177.468542
	   72 D(2,1,3,12)     =     63.315878     0.000029     3.008667    66.324545
	   73 D(2,1,7,19)     =    -60.952070    -0.000007    -1.059368   -62.011438
	   74 D(2,1,7,20)     =     58.982494    -0.000011    -1.250871    57.731624
	   75 D(2,1,7,21)     =    179.143967    -0.000004    -0.891825   178.252142
	   76 D(2,4,6,5)      =     57.278373    -0.000024    -2.625859    54.652514
	   77 D(2,4,6,17)     =    178.777662    -0.000001    -1.273118   177.504544
	   78 D(2,4,6,18)     =    -62.977261    -0.000016    -2.554319   -65.531579
	   79 D(3,1,2,4)      =     57.264481    -0.000030    -2.917757    54.346724
	   80 D(3,1,2,9)      =    -63.318376    -0.000029    -3.004629   -66.323006
	   81 D(3,1,2,10)     =    178.826593    -0.000005    -1.357011   177.469582
	   82 D(3,1,7,19)     =     61.014203     0.000008     1.005354    62.019556
	   83 D(3,1,7,20)     =   -179.051233     0.000004     0.813852  -178.237382
	   84 D(3,1,7,21)     =    -58.889761     0.000010     1.172897   -57.716863
	   85 D(3,5,6,4)      =    -57.275946     0.000024     2.625910   -54.650036
	   86 D(3,5,6,17)     =   -178.773218     0.000001     1.271122  -177.502096
	   87 D(3,5,6,18)     =     62.981763     0.000016     2.552785    65.534548
	   88 D(4,2,1,7)      =   -179.961790    -0.000002    -0.924524  -180.886314
	   89 D(4,2,1,8)      =    -60.855940    -0.000006    -1.664294   -62.520233
	   90 D(4,6,5,15)     =     63.115067     0.000017     2.541534    65.656600
	   91 D(4,6,5,16)     =   -178.731451     0.000003     1.226511  -177.504940
	   92 D(5,3,1,7)      =    179.955764     0.000002     0.930424   180.886188
	   93 D(5,3,1,8)      =     60.853510     0.000006     1.666483    62.519993
	   94 D(5,6,4,13)     =    178.738569    -0.000003    -1.230719   177.507850
	   95 D(5,6,4,14)     =    -63.111913    -0.000017    -2.542449   -65.654361
	   96 D(6,4,2,9)      =     62.677873     0.000012     2.477316    65.155189
	   97 D(6,4,2,10)     =   -179.286845     0.000001     1.349219  -177.937625
	   98 D(6,5,3,11)     =    179.285123    -0.000001    -1.351053   177.934069
	   99 D(6,5,3,12)     =    -62.677579    -0.000012    -2.480803   -65.158381
	  100 D(7,1,2,9)      =     59.455353    -0.000000    -1.011396    58.443956
	  101 D(7,1,2,10)     =    -58.399678     0.000023     0.636222   -57.763456
	  102 D(7,1,3,11)     =     58.391212    -0.000023    -0.627911    57.763301
	  103 D(7,1,3,12)     =    -59.465240     0.000001     1.021629   -58.443611
	  104 D(8,1,2,9)      =    178.561203    -0.000005    -1.751166   176.810037
	  105 D(8,1,2,10)     =     60.706173     0.000019    -0.103548    60.602625
	  106 D(8,1,3,11)     =    -60.711042    -0.000019     0.108149   -60.602894
	  107 D(8,1,3,12)     =   -178.567495     0.000005     1.757689  -176.809806
	  108 D(8,1,7,19)     =   -179.968911     0.000000    -0.026348  -179.995259
	  109 D(8,1,7,20)     =    -60.034347    -0.000003    -0.217851   -60.252197
	  110 D(8,1,7,21)     =     60.127126     0.000003     0.141195    60.268321
	  111 D(9,2,4,13)     =    -58.846841    -0.000007     1.098025   -57.748816
	  112 D(9,2,4,14)     =   -176.958471     0.000007     2.396171  -174.562299
	  113 D(10,2,4,13)    =     59.188441    -0.000018    -0.030071    59.158370
	  114 D(10,2,4,14)    =    -58.923188    -0.000004     1.268075   -57.655113
	  115 D(11,3,5,15)    =     58.918935     0.000004    -1.267129    57.651805
	  116 D(11,3,5,16)    =    -59.191646     0.000018     0.029198   -59.162449
	  117 D(12,3,5,15)    =    176.956234    -0.000007    -2.396879   174.559355
	  118 D(12,3,5,16)    =     58.845652     0.000007    -1.100552    57.745101
	  119 D(13,4,6,17)    =    -59.762142     0.000020     0.122023   -59.640119
	  120 D(13,4,6,18)    =     58.482935     0.000005    -1.159178    57.323757
	  121 D(14,4,6,17)    =     58.387377     0.000005    -1.189707    57.197670
	  122 D(14,4,6,18)    =    176.632454    -0.000010    -2.470908   174.161546
	  123 D(15,5,6,17)    =    -58.382205    -0.000005     1.186746   -57.195460
	  124 D(15,5,6,18)    =   -176.627224     0.000010     2.468408  -174.158816
	  125 D(16,5,6,17)    =     59.771277    -0.000020    -0.128277    59.643000
	  126 D(16,5,6,18)    =    -58.473742    -0.000005     1.153385   -57.320356
	 ---------------------------------------------------------------------------
	Successfully symmetrized geometry.

  ==> Convergence Check <==

  Measures of convergence in internal coordinates in au.
  Criteria marked as inactive (o), active & met (*), and active & unmet ( ).
  --------------------------------------------------------------------------------------------- ~
   Step     Total Energy     Delta E     MAX Force     RMS Force      MAX Disp      RMS Disp    ~
  --------------------------------------------------------------------------------------------- ~
    Convergence Criteria    1.00e-06 *    3.00e-04 *             o    1.20e-03 *             o  ~
  --------------------------------------------------------------------------------------------- ~
      1    -274.94666388   -2.75e+02      3.66e-03      1.08e-03 o    5.25e-02      2.26e-02 o  ~
  ---------------------------------------------------------------------------------------------

	Writing optimization data to binary file.
	Structure for next step:
	Cartesian Geometry (in Angstrom)
	    C    -1.0246871649   0.0000609223  -0.3171915829
	    C    -0.3015317136   1.2542145636   0.1716571175
	    C    -0.3016849822  -1.2541929446   0.1716487358
	    C     1.1750523203   1.2586751221  -0.2156568985
	    C     1.1749153048  -1.2588683017  -0.2156207503
	    C     1.8833626205  -0.0001287385   0.2750415536
	    C    -2.4915369724   0.0001193023   0.0955842165
	    H    -0.9791097883   0.0000862014  -1.4143823731
	    H    -0.3871245447   1.3000109369   1.2642991113
	    H    -0.8001384890   2.1469887843  -0.2203695968
	    H    -0.8003991323  -2.1468906600  -0.2204053767
	    H    -0.3873212583  -1.2999801690   1.2642900748
	    H     1.6682263099   2.1518706931   0.1801811808
	    H     1.2575472929   1.3111798640  -1.3073228622
	    H     1.2574383579  -1.3114348894  -1.3072800206
	    H     1.6679621033  -2.1521042677   0.1802856092
	    H     2.9284486050  -0.0001909865  -0.0493682942
	    H     1.8923515207  -0.0001227332   1.3711889409
	    H    -2.5816683311   0.0001810902   1.1856202849
	    H    -3.0101811478   0.8846095275  -0.2835295386
	    H    -3.0101411191  -0.8844765508  -0.2833680846
			--------------------------
			 OPTKING Finished Execution 
			--------------------------

    Structure for next step:
    Molecular point group: c1
    Full point group: C1

    Geometry (in Angstrom), charge = 0, multiplicity = 1:

    C           -1.025426293031     0.000078414912    -0.316663638656
    C           -0.302270838843     1.254232061163     0.172185063611
    C           -0.302424107403    -1.254175456951     0.172176681969
    C            1.174313200818     1.258692619634    -0.215128953873
    C            1.174176185319    -1.258850814032    -0.215092805687
    C            1.882623503866    -0.000111245910     0.275569500172
    C           -2.492276106276     0.000136794878     0.096112162330
    H           -0.979848916243     0.000103693942    -1.413854433210
    H           -0.387863670282     1.300028434562     1.264827061695
    H           -0.800877616190     2.147006285312    -0.219841652166
    H           -0.801138259462    -2.146873175822    -0.219877432105
    H           -0.388060383883    -1.299962681548     1.264818025173
    H            1.667487192415     2.151888194159     0.180709126916
    H            1.256808173812     1.311197361723    -1.306794921933
    H            1.256699238799    -1.311417401937    -1.306752080253
    H            1.667222985756    -2.152086783609     0.180813555355
    H            2.927709492400    -0.000173493898    -0.048840348957
    H            1.891612404064    -0.000105240619     1.371716891749
    H           -2.582407465299     0.000198582759     1.186148235033
    H           -3.010920283704     0.884627023532    -0.283001594300
    H           -3.010880254988    -0.884459061718    -0.282840140256

gradient() will perform analytic gradient computation.

*** tstart() called on lenovo
*** at Tue Jan 18 21:21:18 2022

   => Loading Basis Set <=

    Name: DEF2-TZVP
    Role: ORBITAL
    Keyword: BASIS
    atoms 1-7  entry C          line   123 file /usr/share/psi4/basis/def2-tzvp.gbs 
    atoms 8-21 entry H          line    15 file /usr/share/psi4/basis/def2-tzvp.gbs 


         ---------------------------------------------------------
                                   SCF
               by Justin Turney, Rob Parrish, Andy Simmonett
                          and Daniel G. A. Smith
                              RKS Reference
                        4 Threads,   7629 MiB Core
         ---------------------------------------------------------

  ==> Geometry <==

    Molecular point group: c1
    Full point group: C1

    Geometry (in Angstrom), charge = 0, multiplicity = 1:

       Center              X                  Y                   Z               Mass       
    ------------   -----------------  -----------------  -----------------  -----------------
         C           -1.025426293031     0.000078414912    -0.316663638656    12.000000000000
         C           -0.302270838843     1.254232061163     0.172185063611    12.000000000000
         C           -0.302424107403    -1.254175456951     0.172176681969    12.000000000000
         C            1.174313200818     1.258692619634    -0.215128953873    12.000000000000
         C            1.174176185319    -1.258850814032    -0.215092805687    12.000000000000
         C            1.882623503866    -0.000111245910     0.275569500172    12.000000000000
         C           -2.492276106276     0.000136794878     0.096112162330    12.000000000000
         H           -0.979848916243     0.000103693942    -1.413854433210     1.007825032230
         H           -0.387863670282     1.300028434562     1.264827061695     1.007825032230
         H           -0.800877616190     2.147006285312    -0.219841652166     1.007825032230
         H           -0.801138259462    -2.146873175822    -0.219877432105     1.007825032230
         H           -0.388060383883    -1.299962681548     1.264818025173     1.007825032230
         H            1.667487192415     2.151888194159     0.180709126916     1.007825032230
         H            1.256808173812     1.311197361723    -1.306794921933     1.007825032230
         H            1.256699238799    -1.311417401937    -1.306752080253     1.007825032230
         H            1.667222985756    -2.152086783609     0.180813555355     1.007825032230
         H            2.927709492400    -0.000173493898    -0.048840348957     1.007825032230
         H            1.891612404064    -0.000105240619     1.371716891749     1.007825032230
         H           -2.582407465299     0.000198582759     1.186148235033     1.007825032230
         H           -3.010920283704     0.884627023532    -0.283001594300     1.007825032230
         H           -3.010880254988    -0.884459061718    -0.282840140256     1.007825032230

  Running in c1 symmetry.

  Rotational constants: A =      0.14140  B =      0.07332  C =      0.05328 [cm^-1]
  Rotational constants: A =   4238.98872  B =   2197.93916  C =   1597.16327 [MHz]
  Nuclear repulsion =  329.539042216551252

  Charge       = 0
  Multiplicity = 1
  Electrons    = 56
  Nalpha       = 28
  Nbeta        = 28

  ==> Algorithm <==

  SCF Algorithm Type is DF.
  DIIS enabled.
  MOM disabled.
  Fractional occupation disabled.
  Guess Type is READ.
  Energy threshold   = 1.00e-08
  Density threshold  = 1.00e-08
  Integral threshold = 0.00e+00

  ==> Primary Basis <==

  Basis Set: DEF2-TZVP
    Blend: DEF2-TZVP
    Number of shells: 133
    Number of basis function: 301
    Number of Cartesian functions: 336
    Spherical Harmonics?: true
    Max angular momentum: 3

  ==> DFT Potential <==

   => Composite Functional: PBE0 <= 

    PBE0 Hyb-GGA Exchange-Correlation Functional

    C. Adamo and V. Barone, J. Chem. Phys. 110, 6158 (1999)
    M. Ernzerhof and G. E. Scuseria, J. Chem. Phys. 110, 5029 (1999)

    Deriv               =              1
    GGA                 =           TRUE
    Meta                =          FALSE

    Exchange Hybrid     =           TRUE
    MP2 Hybrid          =          FALSE

   => Exchange Functionals <=

    0.7500   Perdew, Burke & Ernzerhof

   => Exact (HF) Exchange <=

    0.2500               HF 

   => Correlation Functionals <=

    1.0000   Perdew, Burke & Ernzerhof

   => Molecular Quadrature <=

    Radial Scheme          =       TREUTLER
    Pruning Scheme         =           FLAT
    Nuclear Scheme         =       TREUTLER

    BS radius alpha        =              1
    Pruning alpha          =              1
    Radial Points          =             75
    Spherical Points       =            302
    Total Points           =         472043
    Total Blocks           =           3470
    Max Points             =            256
    Max Functions          =            291

   => Loading Basis Set <=

    Name: (DEF2-TZVP AUX)
    Role: JKFIT
    Keyword: DF_BASIS_SCF
    atoms 1-7  entry C          line   203 file /usr/share/psi4/basis/def2-tzvp-jkfit.gbs 
    atoms 8-21 entry H          line    23 file /usr/share/psi4/basis/def2-tzvp-jkfit.gbs 

   => Loading Basis Set <=

    Name: DEF2-TZVP
    Role: ORBITAL
    Keyword: BASIS
    atoms 1-7  entry C          line   123 file /usr/share/psi4/basis/def2-tzvp.gbs 
    atoms 8-21 entry H          line    15 file /usr/share/psi4/basis/def2-tzvp.gbs 

  Reading orbitals from file 180, no projection.

  ==> Pre-Iterations <==

   -------------------------------------------------------
    Irrep   Nso     Nmo     Nalpha   Nbeta   Ndocc  Nsocc
   -------------------------------------------------------
     A        301     301       0       0       0       0
   -------------------------------------------------------
    Total     301     301      28      28      28       0
   -------------------------------------------------------

  ==> Integral Setup <==

  DFHelper Memory: AOs need 0.533 GiB; user supplied 2.617 GiB. Using in-core AOs.

  ==> MemDFJK: Density-Fitted J/K Matrices <==

    J tasked:                   Yes
    K tasked:                   Yes
    wK tasked:                   No
    OpenMP threads:               4
    Memory [MiB]:              2679
    Algorithm:                 Core
    Schwarz Cutoff:           1E-12
    Mask sparsity (%):       3.2318
    Fitting Condition:        1E-10

   => Auxiliary Basis Set <=

  Basis Set: (DEF2-TZVP AUX)
    Blend: DEF2-TZVP-JKFIT
    Number of shells: 259
    Number of basis function: 777
    Number of Cartesian functions: 903
    Spherical Harmonics?: true
    Max angular momentum: 4

  Cached 100.0% of DFT collocation blocks in 2.971 [GiB].

  Minimum eigenvalue in the overlap matrix is 1.0509282242E-04.
  Using Symmetric Orthogonalization.

  SCF Guess: Orbitals guess was supplied from a previous computation.

  ==> Iterations <==

                           Total Energy        Delta E     RMS |[F,P]|

   @DF-RKS iter   0:  -274.93604406604868   -2.74936e+02   1.89485e-04 
   @DF-RKS iter   1:  -274.94744762495367   -1.14036e-02   1.56250e-05 DIIS
   @DF-RKS iter   2:  -274.94746333483550   -1.57099e-05   5.91642e-06 DIIS
   @DF-RKS iter   3:  -274.94746490727471   -1.57244e-06   1.97933e-06 DIIS
   @DF-RKS iter   4:  -274.94746505378333   -1.46509e-07   8.07877e-07 DIIS
   @DF-RKS iter   5:  -274.94746508106857   -2.72852e-08   1.73558e-07 DIIS
   @DF-RKS iter   6:  -274.94746508222102   -1.15244e-09   5.07034e-08 DIIS
   @DF-RKS iter   7:  -274.94746508233368   -1.12664e-10   9.42555e-09 DIIS
  Energy and wave function converged.


  ==> Post-Iterations <==

    Orbital Energies [Eh]
    ---------------------

    Doubly Occupied:                                                      

       1A    -10.216909     2A    -10.209497     3A    -10.209418  
       4A    -10.209064     5A    -10.208072     6A    -10.208061  
       7A    -10.202767     8A     -0.859082     9A     -0.785014  
      10A     -0.759863    11A     -0.691776    12A     -0.624013  
      13A     -0.598668    14A     -0.564428    15A     -0.486771  
      16A     -0.459405    17A     -0.450407    18A     -0.446371  
      19A     -0.423389    20A     -0.393266    21A     -0.385363  
      22A     -0.375592    23A     -0.359153    24A     -0.347042  
      25A     -0.336983    26A     -0.320078    27A     -0.305641  
      28A     -0.301616  

    Virtual:                                                              

      29A      0.044431    30A      0.061934    31A      0.064229  
      32A      0.075923    33A      0.103165    34A      0.112507  
      35A      0.116011    36A      0.118228    37A      0.123638  
      38A      0.132040    39A      0.134924    40A      0.138479  
      41A      0.155141    42A      0.155327    43A      0.175109  
      44A      0.190142    45A      0.198555    46A      0.212656  
      47A      0.212910    48A      0.230898    49A      0.242781  
      50A      0.252025    51A      0.259845    52A      0.262266  
      53A      0.273747    54A      0.290143    55A      0.290328  
      56A      0.321985    57A      0.334869    58A      0.343111  
      59A      0.360900    60A      0.375331    61A      0.399676  
      62A      0.412229    63A      0.419649    64A      0.429597  
      65A      0.437971    66A      0.442773    67A      0.443148  
      68A      0.445725    69A      0.453099    70A      0.457434  
      71A      0.460524    72A      0.461853    73A      0.473935  
      74A      0.484778    75A      0.489915    76A      0.494323  
      77A      0.501291    78A      0.502389    79A      0.511364  
      80A      0.512010    81A      0.525328    82A      0.529236  
      83A      0.588150    84A      0.623220    85A      0.639316  
      86A      0.672619    87A      0.690138    88A      0.697084  
      89A      0.703468    90A      0.762271    91A      0.778700  
      92A      0.798082    93A      0.805410    94A      0.815094  
      95A      0.825851    96A      0.848357    97A      0.855027  
      98A      0.873558    99A      0.876103   100A      0.912121  
     101A      0.920693   102A      0.954786   103A      0.959568  
     104A      1.010991   105A      1.025258   106A      1.029653  
     107A      1.053547   108A      1.065374   109A      1.070277  
     110A      1.098431   111A      1.133112   112A      1.159973  
     113A      1.160818   114A      1.175047   115A      1.182201  
     116A      1.213290   117A      1.216387   118A      1.232439  
     119A      1.272000   120A      1.286018   121A      1.286703  
     122A      1.319200   123A      1.329221   124A      1.384420  
     125A      1.418791   126A      1.443117   127A      1.465946  
     128A      1.531113   129A      1.555910   130A      1.560100  
     131A      1.571830   132A      1.601932   133A      1.609551  
     134A      1.623862   135A      1.626524   136A      1.630939  
     137A      1.639226   138A      1.656581   139A      1.666283  
     140A      1.685023   141A      1.691890   142A      1.737654  
     143A      1.740727   144A      1.746406   145A      1.774735  
     146A      1.784106   147A      1.791923   148A      1.824851  
     149A      1.872244   150A      1.885848   151A      1.887670  
     152A      1.909376   153A      1.972910   154A      1.985459  
     155A      2.004827   156A      2.005094   157A      2.028427  
     158A      2.035662   159A      2.085468   160A      2.104387  
     161A      2.123062   162A      2.147700   163A      2.168736  
     164A      2.194377   165A      2.207711   166A      2.214030  
     167A      2.236988   168A      2.294630   169A      2.321922  
     170A      2.340507   171A      2.347138   172A      2.371343  
     173A      2.403308   174A      2.415191   175A      2.433596  
     176A      2.452427   177A      2.462357   178A      2.477661  
     179A      2.513162   180A      2.535094   181A      2.539466  
     182A      2.548471   183A      2.569750   184A      2.577306  
     185A      2.578296   186A      2.590140   187A      2.599017  
     188A      2.609230   189A      2.620154   190A      2.633144  
     191A      2.665790   192A      2.675839   193A      2.690529  
     194A      2.700229   195A      2.708735   196A      2.713038  
     197A      2.736108   198A      2.747110   199A      2.764001  
     200A      2.772275   201A      2.805975   202A      2.818305  
     203A      2.825901   204A      2.850837   205A      2.891254  
     206A      2.916481   207A      2.935148   208A      2.952845  
     209A      2.953351   210A      2.986236   211A      2.998833  
     212A      3.045379   213A      3.053788   214A      3.111438  
     215A      3.121763   216A      3.146998   217A      3.148926  
     218A      3.160572   219A      3.193251   220A      3.196815  
     221A      3.203366   222A      3.218236   223A      3.242656  
     224A      3.269522   225A      3.313502   226A      3.315276  
     227A      3.317723   228A      3.344809   229A      3.347005  
     230A      3.384364   231A      3.401320   232A      3.414953  
     233A      3.423302   234A      3.423962   235A      3.453272  
     236A      3.480939   237A      3.499765   238A      3.517468  
     239A      3.531209   240A      3.534055   241A      3.551874  
     242A      3.556898   243A      3.559252   244A      3.570242  
     245A      3.619321   246A      3.629467   247A      3.644927  
     248A      3.661360   249A      3.674940   250A      3.685628  
     251A      3.713144   252A      3.745176   253A      3.761124  
     254A      3.812882   255A      3.814326   256A      3.856441  
     257A      3.930077   258A      3.960663   259A      3.993143  
     260A      4.003998   261A      4.031660   262A      4.038003  
     263A      4.078600   264A      4.083880   265A      4.122639  
     266A      4.157876   267A      4.169806   268A      4.174455  
     269A      4.203267   270A      4.236748   271A      4.295057  
     272A      4.339389   273A      4.343087   274A      4.357972  
     275A      4.403414   276A      4.430083   277A      4.432355  
     278A      4.501822   279A      4.520671   280A      4.593469  
     281A      4.598189   282A      4.651938   283A      4.674955  
     284A      4.718661   285A      4.726409   286A      4.782926  
     287A      4.830604   288A      4.872658   289A      4.924089  
     290A      4.924560   291A      5.010501   292A      5.102174  
     293A      5.111790   294A      5.203344   295A     22.452086  
     296A     22.521130   297A     22.561688   298A     22.577053  
     299A     22.604953   300A     22.687644   301A     22.785018  

    Final Occupation by Irrep:
              A 
    DOCC [    28 ]

  @DF-RKS Final Energy:  -274.94746508233368

   => Energetics <=

    Nuclear Repulsion Energy =            329.5390422165512518
    One-Electron Energy =               -1022.1705600630662047
    Two-Electron Energy =                 450.3458859193742114
    DFT Exchange-Correlation Energy =     -32.6618331551929515
    Empirical Dispersion Energy =           0.0000000000000000
    VV10 Nonlocal Energy =                  0.0000000000000000
    Total Energy =                       -274.9474650823336788

Computation Completed


Properties will be evaluated at   0.000000,   0.000000,   0.000000 [a0]

Properties computed using the SCF density matrix

  Nuclear Dipole Moment: [e a0]
     X:    -1.2135      Y:    -0.0000      Z:     0.3443

  Electronic Dipole Moment: [e a0]
     X:     1.2499      Y:     0.0000      Z:    -0.3776

  Dipole Moment: [e a0]
     X:     0.0363      Y:    -0.0000      Z:    -0.0334     Total:     0.0493

  Dipole Moment: [D]
     X:     0.0924      Y:    -0.0000      Z:    -0.0848     Total:     0.1254


*** tstop() called on lenovo at Tue Jan 18 21:21:44 2022
Module time:
	user time   =      87.70 seconds =       1.46 minutes
	system time =       0.83 seconds =       0.01 minutes
	total time  =         26 seconds =       0.43 minutes
Total time:
	user time   =     234.73 seconds =       3.91 minutes
	system time =       3.22 seconds =       0.05 minutes
	total time  =         68 seconds =       1.13 minutes

*** tstart() called on lenovo
*** at Tue Jan 18 21:21:44 2022


         ------------------------------------------------------------
                                   SCF GRAD                          
                          Rob Parrish, Justin Turney,                
                       Andy Simmonett, and Alex Sokolov              
         ------------------------------------------------------------

  ==> Geometry <==

    Molecular point group: c1
    Full point group: C1

    Geometry (in Angstrom), charge = 0, multiplicity = 1:

       Center              X                  Y                   Z               Mass       
    ------------   -----------------  -----------------  -----------------  -----------------
         C           -1.025426293031     0.000078414912    -0.316663638656    12.000000000000
         C           -0.302270838843     1.254232061163     0.172185063611    12.000000000000
         C           -0.302424107403    -1.254175456951     0.172176681969    12.000000000000
         C            1.174313200818     1.258692619634    -0.215128953873    12.000000000000
         C            1.174176185319    -1.258850814032    -0.215092805687    12.000000000000
         C            1.882623503866    -0.000111245910     0.275569500172    12.000000000000
         C           -2.492276106276     0.000136794878     0.096112162330    12.000000000000
         H           -0.979848916243     0.000103693942    -1.413854433210     1.007825032230
         H           -0.387863670282     1.300028434562     1.264827061695     1.007825032230
         H           -0.800877616190     2.147006285312    -0.219841652166     1.007825032230
         H           -0.801138259462    -2.146873175822    -0.219877432105     1.007825032230
         H           -0.388060383883    -1.299962681548     1.264818025173     1.007825032230
         H            1.667487192415     2.151888194159     0.180709126916     1.007825032230
         H            1.256808173812     1.311197361723    -1.306794921933     1.007825032230
         H            1.256699238799    -1.311417401937    -1.306752080253     1.007825032230
         H            1.667222985756    -2.152086783609     0.180813555355     1.007825032230
         H            2.927709492400    -0.000173493898    -0.048840348957     1.007825032230
         H            1.891612404064    -0.000105240619     1.371716891749     1.007825032230
         H           -2.582407465299     0.000198582759     1.186148235033     1.007825032230
         H           -3.010920283704     0.884627023532    -0.283001594300     1.007825032230
         H           -3.010880254988    -0.884459061718    -0.282840140256     1.007825032230

  Nuclear repulsion =  329.539042216551252

  ==> Basis Set <==

  Basis Set: DEF2-TZVP
    Blend: DEF2-TZVP
    Number of shells: 133
    Number of basis function: 301
    Number of Cartesian functions: 336
    Spherical Harmonics?: true
    Max angular momentum: 3

  ==> DFJKGrad: Density-Fitted SCF Gradients <==

    Gradient:                    1
    J tasked:                  Yes
    K tasked:                  Yes
    wK tasked:                  No
    OpenMP threads:              4
    Integrals threads:           4
    Memory [MiB]:             5722
    Schwarz Cutoff:          0E+00
    Fitting Condition:       1E-10

   => Auxiliary Basis Set <=

  Basis Set: (DEF2-TZVP AUX)
    Blend: DEF2-TZVP-JKFIT
    Number of shells: 259
    Number of basis function: 777
    Number of Cartesian functions: 903
    Spherical Harmonics?: true
    Max angular momentum: 4

  ==> DFT Potential <==

   => Composite Functional: PBE0 <= 

    PBE0 Hyb-GGA Exchange-Correlation Functional

    C. Adamo and V. Barone, J. Chem. Phys. 110, 6158 (1999)
    M. Ernzerhof and G. E. Scuseria, J. Chem. Phys. 110, 5029 (1999)

    Deriv               =              1
    GGA                 =           TRUE
    Meta                =          FALSE

    Exchange Hybrid     =           TRUE
    MP2 Hybrid          =          FALSE

   => Exchange Functionals <=

    0.7500   Perdew, Burke & Ernzerhof

   => Exact (HF) Exchange <=

    0.2500               HF 

   => Correlation Functionals <=

    1.0000   Perdew, Burke & Ernzerhof

   => Molecular Quadrature <=

    Radial Scheme          =       TREUTLER
    Pruning Scheme         =           FLAT
    Nuclear Scheme         =       TREUTLER

    BS radius alpha        =              1
    Pruning alpha          =              1
    Radial Points          =             75
    Spherical Points       =            302
    Total Points           =         472043
    Total Blocks           =           3470
    Max Points             =            256
    Max Functions          =            291


  -Total Gradient:
     Atom            X                  Y                   Z
    ------   -----------------  -----------------  -----------------
       1        0.000728447778    -0.000000425474    -0.000642461394
       2       -0.001505520181     0.001571081238     0.000963412902
       3       -0.001506857892    -0.001573251750     0.000963718544
       4        0.001314318039     0.001765076290    -0.000905043472
       5        0.001318149401    -0.001769024048    -0.000905532729
       6        0.001963936507     0.000000332130     0.000893965774
       7       -0.003042111922     0.000010624758     0.000818346208
       8       -0.000000327151     0.000002352483     0.001108888277
       9        0.000268498880    -0.000582274246    -0.001009559650
      10        0.000005520928    -0.000016419117    -0.000258519939
      11        0.000006923811     0.000018522453    -0.000258960147
      12        0.000267940579     0.000583384443    -0.001007992379
      13        0.000150481859     0.000068217773     0.000196626315
      14       -0.000271620865    -0.000491064962     0.000782251844
      15       -0.000271553859     0.000491571501     0.000782863982
      16        0.000151202263    -0.000068101455     0.000197498989
      17        0.000066411626    -0.000000159236    -0.000198557980
      18       -0.000512299193    -0.000001093767    -0.000781686500
      19        0.000550451734    -0.000002707926    -0.000492412282
      20        0.000150267652     0.000016667251    -0.000121781544
      21        0.000150849978    -0.000023303759    -0.000121089868


*** tstop() called on lenovo at Tue Jan 18 21:21:56 2022
Module time:
	user time   =      40.27 seconds =       0.67 minutes
	system time =       0.44 seconds =       0.01 minutes
	total time  =         12 seconds =       0.20 minutes
Total time:
	user time   =     275.01 seconds =       4.58 minutes
	system time =       3.66 seconds =       0.06 minutes
	total time  =         80 seconds =       1.33 minutes

			-----------------------------------------
			 OPTKING 2.0: for geometry optimizations 
			  - R.A. King,  Bethel University        
			-----------------------------------------

	Previous internal coordinate definitions found.
	---Fragment 1 Geometry and Gradient---
	 C          -1.9377748557        0.0001481827       -0.5984075510
	 C          -0.5712091011        2.3701550934        0.3253826131
	 C          -0.5714987367       -2.3700481269        0.3253667741
	 C           2.2191303351        2.3785843272       -0.4065348045
	 C           2.2188714133       -2.3788832713       -0.4064664943
	 C           3.5576428197       -0.0002102243        0.5207508839
	 C          -4.7097192699        0.0002585049        0.1816256641
	 H          -1.8516460960        0.0001959532       -2.6717976600
	 H          -0.7329561108        2.4566976966        2.3901767427
	 H          -1.5134393546        4.0572538689       -0.4154405136
	 H          -1.5139318990       -4.0570023284       -0.4155081278
	 H          -0.7333278457       -2.4565734414        2.3901596661
	 H           3.1510941114        4.0664793396        0.3414907582
	 H           2.3750232407        2.4778039101       -2.4694845046
	 H           2.3748173834       -2.4782197258       -2.4694035455
	 H           3.1505948331       -4.0668546192        0.3416880994
	 H           5.5325691155       -0.0003278560       -0.0922948834
	 H           3.5746293792       -0.0001988759        2.5921692471
	 H          -4.8800428538        0.0003752670        2.2414953084
	 H          -5.6898147218        1.6717027977       -0.5347955063
	 H          -5.6897390785       -1.6713853958       -0.5344904024
	             0.0007284478       -0.0000004255       -0.0006424614
	            -0.0015055202        0.0015710812        0.0009634129
	            -0.0015068579       -0.0015732518        0.0009637185
	             0.0013143180        0.0017650763       -0.0009050435
	             0.0013181494       -0.0017690240       -0.0009055327
	             0.0019639365        0.0000003321        0.0008939658
	            -0.0030421119        0.0000106248        0.0008183462
	            -0.0000003272        0.0000023525        0.0011088883
	             0.0002684989       -0.0005822742       -0.0010095597
	             0.0000055209       -0.0000164191       -0.0002585199
	             0.0000069238        0.0000185225       -0.0002589601
	             0.0002679406        0.0005833844       -0.0010079924
	             0.0001504819        0.0000682178        0.0001966263
	            -0.0002716209       -0.0004910650        0.0007822518
	            -0.0002715539        0.0004915715        0.0007828640
	             0.0001512023       -0.0000681015        0.0001974990
	             0.0000664116       -0.0000001592       -0.0001985580
	            -0.0005122992       -0.0000010938       -0.0007816865
	             0.0005504517       -0.0000027079       -0.0004924123
	             0.0001502677        0.0000166673       -0.0001217815
	             0.0001508500       -0.0000233038       -0.0001210899

	---Fragment 1 Intrafragment Coordinates---
	 - Coordinate -           - BOHR/RAD -       - ANG/DEG -
	 R(1,2)           =         2.887529	       1.528014
	 R(1,3)           =         2.887542	       1.528022
	 R(1,7)           =         2.879605	       1.523822
	 R(1,8)           =         2.075178	       1.098137
	 R(2,4)           =         2.884748	       1.526543
	 R(2,9)           =         2.072927	       1.096946
	 R(2,10)          =         2.069521	       1.095144
	 R(3,5)           =         2.884757	       1.526548
	 R(3,11)          =         2.069515	       1.095140
	 R(3,12)          =         2.072931	       1.096948
	 R(4,6)           =         2.882731	       1.525476
	 R(4,13)          =         2.068112	       1.094398
	 R(4,14)          =         2.071209	       1.096037
	 R(5,6)           =         2.882729	       1.525474
	 R(5,15)          =         2.071206	       1.096035
	 R(5,16)          =         2.068113	       1.094398
	 R(6,17)          =         2.067888	       1.094279
	 R(6,18)          =         2.071488	       1.096184
	 R(7,19)          =         2.066899	       1.093756
	 R(7,20)          =         2.065810	       1.093180
	 R(7,21)          =         2.065830	       1.093190
	 B(1,2,4)         =         1.959516	     112.271981
	 B(1,2,9)         =         1.892315	     108.421637
	 B(1,2,10)        =         1.916766	     109.822624
	 B(1,3,5)         =         1.959550	     112.273926
	 B(1,3,11)        =         1.916755	     109.821950
	 B(1,3,12)        =         1.892290	     108.420259
	 B(1,7,19)        =         1.927604	     110.443596
	 B(1,7,20)        =         1.942054	     111.271499
	 B(1,7,21)        =         1.941989	     111.267766
	 B(2,1,3)         =         1.925635	     110.330779
	 B(2,1,7)         =         1.948597	     111.646407
	 B(2,1,8)         =         1.875475	     107.456826
	 B(2,4,6)         =         1.944537	     111.413755
	 B(2,4,13)        =         1.924637	     110.273566
	 B(2,4,14)        =         1.902497	     109.005039
	 B(3,1,7)         =         1.948561	     111.644319
	 B(3,1,8)         =         1.875512	     107.458933
	 B(3,5,6)         =         1.944526	     111.413157
	 B(3,5,15)        =         1.902498	     109.005116
	 B(3,5,16)        =         1.924638	     110.273614
	 B(4,2,9)         =         1.905064	     109.152100
	 B(4,2,10)        =         1.925362	     110.315123
	 B(4,6,5)         =         1.940996	     111.210863
	 B(4,6,17)        =         1.926375	     110.373133
	 B(4,6,18)        =         1.902296	     108.993528
	 B(5,3,11)        =         1.925351	     110.314469
	 B(5,3,12)        =         1.905066	     109.152239
	 B(5,6,17)        =         1.926374	     110.373082
	 B(5,6,18)        =         1.902281	     108.992698
	 B(6,4,13)        =         1.926120	     110.358542
	 B(6,4,14)        =         1.901775	     108.963665
	 B(6,5,15)        =         1.901776	     108.963726
[...]
	 B(7,1,8)         =         1.888070	     108.178455
	 B(9,2,10)        =         1.856064	     106.344662
	 B(11,3,12)       =         1.856065	     106.344689
	 B(13,4,14)       =         1.857333	     106.417350
	 B(15,5,16)       =         1.857333	     106.417347
	 B(17,6,18)       =         1.858691	     106.495121
	 B(19,7,20)       =         1.878616	     107.636750
	 B(19,7,21)       =         1.878618	     107.636864
	 B(20,7,21)       =         1.882912	     107.882895
	 D(1,2,4,6)       =        -0.963545	     -55.207035
	 D(1,2,4,13)      =        -3.108013	    -178.076015
	 D(1,2,4,14)      =         1.141185	      65.385100
	 D(1,3,5,6)       =         0.963552	      55.207440
	 D(1,3,5,15)      =        -1.141179	     -65.384715
	 D(1,3,5,16)      =         3.108018	     178.076342
	 D(2,1,3,5)       =        -0.951016	     -54.489186
	 D(2,1,3,11)      =        -3.100105	    -177.622925
	 D(2,1,3,12)      =         1.160041	      66.465466
	 D(2,1,7,19)      =        -1.080530	     -61.909783
	 D(2,1,7,20)      =         1.009411	      57.835018
	 D(2,1,7,21)      =         3.112710	     178.345173
	 D(2,4,6,5)       =         0.954388	      54.682378
	 D(2,4,6,17)      =         3.098363	     177.523114
	 D(2,4,6,18)      =        -1.147841	     -65.766444
	 D(3,1,2,4)       =         0.951012	      54.488970
	 D(3,1,2,9)       =        -1.160048	     -66.465836
	 D(3,1,2,10)      =         3.100099	     177.622599
	 D(3,1,7,19)      =         1.080671	      61.917912
	 D(3,1,7,20)      =        -3.112573	    -178.337287
	 D(3,1,7,21)      =        -1.009274	     -57.827131
	 D(3,5,6,4)       =        -0.954391	     -54.682576
	 D(3,5,6,17)      =        -3.098367	    -177.523337
	 D(3,5,6,18)      =         1.147837	      65.766232
	 D(4,2,1,7)       =         3.125968	     179.104775
	 D(4,2,1,8)       =        -1.089282	     -62.411234
	 D(4,6,5,15)      =         1.150559	      65.922173
	 D(4,6,5,16)      =        -3.097330	    -177.463939
	 D(5,3,1,7)       =        -3.125972	    -179.105030
	 D(5,3,1,8)       =         1.089279	      62.411100
	 D(5,6,4,13)      =         3.097328	     177.463816
	 D(5,6,4,14)      =        -1.150561	     -65.922291
	 D(6,4,2,9)       =         1.140562	      65.349401
	 D(6,4,2,10)      =        -3.107679	    -178.056909
	 D(6,5,3,11)      =         3.107688	     178.057405
	 D(6,5,3,12)      =        -1.140553	     -65.348860
	 D(7,1,2,9)       =         1.014908	      58.149969
	 D(7,1,2,10)      =        -1.008130	     -57.761596
	 D(7,1,3,11)      =         1.008124	      57.761232
	 D(7,1,3,12)      =        -1.014916	     -58.150377
	 D(8,1,2,9)       =         3.082844	     176.633960
	 D(8,1,2,10)      =         1.059806	      60.722394
	 D(8,1,3,11)      =        -1.059810	     -60.722638
	 D(8,1,3,12)      =        -3.082849	    -176.634247
	 D(8,1,7,19)      =        -3.141523	    -179.996036
	 D(8,1,7,20)      =        -1.051582	     -60.251234
	 D(8,1,7,21)      =         1.051717	      60.258921
	 D(9,2,4,13)      =        -1.003906	     -57.519579
	 D(9,2,4,14)      =        -3.037893	    -174.058464
	 D(10,2,4,13)     =         1.031038	      59.074111
	 D(10,2,4,14)     =        -1.002950	     -57.464774
	 D(11,3,5,15)     =         1.002958	      57.465251
	 D(11,3,5,16)     =        -1.031030	     -59.073693
	 D(12,3,5,15)     =         3.037902	     174.058986
	 D(12,3,5,16)     =         1.003914	      57.520042
	 D(13,4,6,17)     =        -1.041882	     -59.695448
	 D(13,4,6,18)     =         0.995099	      57.014993
	 D(14,4,6,17)     =         0.993414	      56.918445
	 D(14,4,6,18)     =         3.030396	     173.628887
	 D(15,5,6,17)     =        -0.993417	     -56.918588
	 D(15,5,6,18)     =        -3.030398	    -173.629019
	 D(16,5,6,17)     =         1.041880	      59.695300
	 D(16,5,6,18)     =        -0.995102	     -57.015131

	Current energy   :      -274.9475277321

	Energy change for the previous step:
		Projected    :        -0.0000052963
		Actual       :        -0.0000011247
	Energy ratio indicates iffy step: Trust radius decreased to 2.500e-01.


	Performing BFGS update.
	Previous computed or guess Hessian on step 1.
	Steps to be used in Hessian update: 3 2
	Taking RFO optimization step.
	Going to follow RFO solution 1.
	Using RFO vector 1.
	Norm of target step-size    0.00136
	Projected energy change by RFO approximation:        -0.0000001579

	Back-transformation to cartesian coordinates...
	Could not converge backtransformation.
	Using first guess instead.

	--- Internal Coordinate Step in ANG or DEG, aJ/ANG or AJ/DEG ---
	 ---------------------------------------------------------------------------
	   Coordinate                Previous        Force       Change         New 
	   ----------                --------       ------       ------       ------
	    1 R(1,2)          =      1.526086     0.000362     0.000084     1.526169
	    2 R(1,3)          =      1.526085     0.000363     0.000084     1.526170
	    3 R(1,7)          =      1.519610    -0.000538    -0.000129     1.519482
	    4 R(1,8)          =      1.099965    -0.000161    -0.000033     1.099932
	    5 R(2,4)          =      1.522950    -0.000011    -0.000010     1.522939
	    6 R(2,9)          =      1.098745    -0.000191    -0.000041     1.098704
	    7 R(2,10)         =      1.095277     0.000005     0.000003     1.095280
	    8 R(3,5)          =      1.522949    -0.000010    -0.000009     1.522940
	    9 R(3,11)         =      1.095278     0.000003     0.000002     1.095280
	   10 R(3,12)         =      1.098744    -0.000188    -0.000040     1.098704
	   11 R(4,6)          =      1.522771     0.000262     0.000056     1.522828
	   12 R(4,13)         =      1.094310     0.000070     0.000015     1.094325
	   13 R(4,14)         =      1.097446    -0.000123    -0.000027     1.097419
	   14 R(5,6)          =      1.522772     0.000261     0.000057     1.522828
	   15 R(5,15)         =      1.097446    -0.000123    -0.000027     1.097419
	   16 R(5,16)         =      1.094310     0.000070     0.000015     1.094325
	   17 R(6,17)         =      1.094288     0.000004     0.000002     1.094290
	   18 R(6,18)         =      1.097523    -0.000128    -0.000029     1.097494
	   19 R(7,19)         =      1.094726    -0.000014    -0.000009     1.094717
	   20 R(7,20)         =      1.093401    -0.000045    -0.000014     1.093387
	   21 R(7,21)         =      1.093400    -0.000045    -0.000014     1.093387
	   22 B(1,2,4)        =    112.254109    -0.000000    -0.003094   112.251015
	   23 B(1,2,9)        =    108.601199     0.000000    -0.000112   108.601086
	   24 B(1,2,10)       =    109.826848    -0.000001    -0.005358   109.821489
	   25 B(1,3,5)        =    112.254042    -0.000000    -0.002984   112.251058
	   26 B(1,3,11)       =    109.826906    -0.000001    -0.005514   109.821392
	   27 B(1,3,12)       =    108.601161     0.000000     0.000023   108.601184
	   28 B(1,7,19)       =    110.723695     0.000002     0.010916   110.734612
	   29 B(1,7,20)       =    111.393884     0.000000     0.003033   111.396917
	   30 B(1,7,21)       =    111.394033     0.000000     0.002826   111.396859
	   31 B(2,1,3)        =    110.211147    -0.000000    -0.008086   110.203061
	   32 B(2,1,7)        =    111.613985    -0.000000    -0.001285   111.612700
	   33 B(2,1,8)        =    107.513681     0.000000     0.001666   107.515347
	   34 B(2,4,6)        =    111.398890     0.000000     0.001726   111.400616
	   35 B(2,4,13)       =    110.217449    -0.000000     0.000138   110.217587
	   36 B(2,4,14)       =    109.159482     0.000000     0.000989   109.160471
	   37 B(3,1,7)        =    111.613918    -0.000000    -0.001093   111.612825
	   38 B(3,1,8)        =    107.513550     0.000000     0.001888   107.515437
	   39 B(3,5,6)        =    111.398794     0.000000     0.001918   111.400713
	   40 B(3,5,15)       =    109.159592     0.000000     0.000837   109.160429
	   41 B(3,5,16)       =    110.217447    -0.000000     0.000175   110.217622
	   42 B(4,2,9)        =    109.291754     0.000000     0.004912   109.296667
	   43 B(4,2,10)       =    110.330812     0.000001     0.004752   110.335565
	   44 B(4,6,5)        =    111.193031    -0.000000    -0.000495   111.192536
	   45 B(4,6,17)       =    110.373660     0.000000     0.001223   110.374883
	   46 B(4,6,18)       =    109.138647    -0.000000    -0.000549   109.138098
	   47 B(5,3,11)       =    110.330901     0.000001     0.004645   110.335546
	   48 B(5,3,12)       =    109.291687     0.000000     0.004977   109.296664
	   49 B(5,6,17)       =    110.373618     0.000000     0.001288   110.374906
	   50 B(5,6,18)       =    109.138671    -0.000000    -0.000599   109.138072
	   51 B(6,4,13)       =    110.370162     0.000000     0.003017   110.373179
	   52 B(6,4,14)       =    109.138137    -0.000000    -0.002393   109.135744
	   53 B(6,5,15)       =    109.138143    -0.000000    -0.002452   109.135690
	   54 B(6,5,16)       =    110.370154     0.000000     0.003007   110.373161
	   55 B(7,1,8)        =    108.178455     0.000000     0.007505   108.185960
	   56 B(9,2,10)       =    106.344662    -0.000000    -0.000988   106.343674
	   57 B(11,3,12)      =    106.344689    -0.000000    -0.001037   106.343652
	   58 B(13,4,14)      =    106.417350    -0.000000    -0.003775   106.413575
	   59 B(15,5,16)      =    106.417347    -0.000000    -0.003797   106.413549
	   60 B(17,6,18)      =    106.495121    -0.000000    -0.000927   106.494195
	   61 B(19,7,20)      =    107.636750    -0.000001    -0.006425   107.630325
	   62 B(19,7,21)      =    107.636864    -0.000001    -0.006516   107.630348
	   63 B(20,7,21)      =    107.882895    -0.000001    -0.004823   107.878073
	   64 D(1,2,4,6)      =    -55.207035    -0.000000    -0.007052   -55.214087
	   65 D(1,2,4,13)     =   -178.076015    -0.000000    -0.012197  -178.088212
	   66 D(1,2,4,14)     =     65.385100    -0.000000    -0.008288    65.376812
	   67 D(1,3,5,6)      =     55.207440     0.000000     0.006288    55.213727
	   68 D(1,3,5,15)     =    -65.384715     0.000000     0.007576   -65.377139
	   69 D(1,3,5,16)     =    178.076342     0.000000     0.011579   178.087921
	   70 D(2,1,3,5)      =    -54.489186    -0.000000    -0.015321   -54.504507
	   71 D(2,1,3,11)     =   -177.622925    -0.000000    -0.015221  -177.638146
	   72 D(2,1,3,12)     =     66.465466     0.000000    -0.010964    66.454502
	   73 D(2,1,7,19)     =    -61.909783     0.000000    -0.000877   -61.910660
	   74 D(2,1,7,20)     =     57.835018     0.000000     0.000313    57.835331
	   75 D(2,1,7,21)     =    178.345173     0.000000    -0.001815   178.343358
	   76 D(2,4,6,5)      =     54.682378    -0.000000    -0.006346    54.676033
	   77 D(2,4,6,17)     =    177.523114     0.000000    -0.004186   177.518928
	   78 D(2,4,6,18)     =    -65.766444     0.000000    -0.004930   -65.771374
	   79 D(3,1,2,4)      =     54.488970     0.000000     0.015728    54.504698
	   80 D(3,1,2,9)      =    -66.465836    -0.000000     0.011614   -66.454222
	   81 D(3,1,2,10)     =    177.622599     0.000000     0.015802   177.638401
	   82 D(3,1,7,19)     =     61.917912    -0.000000    -0.013210    61.904702
	   83 D(3,1,7,20)     =   -178.337287    -0.000000    -0.012021  -178.349307
	   84 D(3,1,7,21)     =    -57.827131    -0.000000    -0.014148   -57.841280
	   85 D(3,5,6,4)      =    -54.682576     0.000000     0.006702   -54.675874
	   86 D(3,5,6,17)     =   -177.523337    -0.000000     0.004580  -177.518757
	   87 D(3,5,6,18)     =     65.766232    -0.000000     0.005315    65.771548
	   88 D(4,2,1,7)      =    179.104775    -0.000000     0.007439   179.112214
	   89 D(4,2,1,8)      =    -62.411234     0.000000     0.016889   -62.394346
	   90 D(4,6,5,15)     =     65.922173     0.000000     0.007345    65.929518
	   91 D(4,6,5,16)     =   -177.463939     0.000000     0.003026  -177.460913
	   92 D(5,3,1,7)      =   -179.105030     0.000000    -0.006922  -179.111952
	   93 D(5,3,1,8)      =     62.411100    -0.000000    -0.016619    62.394480
	   94 D(5,6,4,13)     =    177.463816    -0.000000    -0.002844   177.460972
	   95 D(5,6,4,14)     =    -65.922291    -0.000000    -0.007094   -65.929385
	   96 D(6,4,2,9)      =     65.349401    -0.000000    -0.005849    65.343552
	   97 D(6,4,2,10)     =   -178.056909     0.000000    -0.001407  -178.058316
	   98 D(6,5,3,11)     =    178.057405    -0.000000     0.000442   178.057848
	   99 D(6,5,3,12)     =    -65.348860     0.000000     0.004800   -65.344060
	  100 D(7,1,2,9)      =     58.149969    -0.000000     0.003325    58.153295
	  101 D(7,1,2,10)     =    -57.761596    -0.000000     0.007514   -57.754083
	  102 D(7,1,3,11)     =     57.761232     0.000000    -0.006822    57.754410
	  103 D(7,1,3,12)     =    -58.150377     0.000000    -0.002565   -58.152942
	  104 D(8,1,2,9)      =    176.633960    -0.000000     0.012775   176.646735
	  105 D(8,1,2,10)     =     60.722394     0.000000     0.016963    60.739358
	  106 D(8,1,3,11)     =    -60.722638    -0.000000    -0.016520   -60.739158
	  107 D(8,1,3,12)     =   -176.634247     0.000000    -0.012263  -176.646510
	  108 D(8,1,7,19)     =   -179.996036    -0.000000    -0.006852  -180.002888
	  109 D(8,1,7,20)     =    -60.251234     0.000000    -0.005662   -60.256897
	  110 D(8,1,7,21)     =     60.258921    -0.000000    -0.007790    60.251131
	  111 D(9,2,4,13)     =    -57.519579    -0.000000    -0.010994   -57.530573
	  112 D(9,2,4,14)     =   -174.058464    -0.000000    -0.007085  -174.065549
	  113 D(10,2,4,13)    =     59.074111     0.000000    -0.006553    59.067559
	  114 D(10,2,4,14)    =    -57.464774     0.000000    -0.002644   -57.467417
	  115 D(11,3,5,15)    =     57.465251    -0.000000     0.001730    57.466981
	  116 D(11,3,5,16)    =    -59.073693    -0.000000     0.005733   -59.067959
	  117 D(12,3,5,15)    =    174.058986     0.000000     0.006088   174.065074
	  118 D(12,3,5,16)    =     57.520042     0.000000     0.010091    57.530133
	  119 D(13,4,6,17)    =    -59.695448     0.000000    -0.000684   -59.696132
	  120 D(13,4,6,18)    =     57.014993     0.000000    -0.001428    57.013566
	  121 D(14,4,6,17)    =     56.918445    -0.000000    -0.004935    56.913511
	  122 D(14,4,6,18)    =    173.628887    -0.000000    -0.005678   173.623209
	  123 D(15,5,6,17)    =    -56.918588     0.000000     0.005223   -56.913365
	  124 D(15,5,6,18)    =   -173.629019     0.000000     0.005958  -173.623060
	  125 D(16,5,6,17)    =     59.695300    -0.000000     0.000904    59.696204
	  126 D(16,5,6,18)    =    -57.015131    -0.000000     0.001640   -57.013491
	 ---------------------------------------------------------------------------
	Successfully symmetrized geometry.

  ==> Convergence Check <==

  Measures of convergence in internal coordinates in au.
  Criteria marked as inactive (o), active & met (*), and active & unmet ( ).
  ---------------------------------------------------------------------------------------------
   Step     Total Energy     Delta E     MAX Force     RMS Force      MAX Disp      RMS Disp   
  ---------------------------------------------------------------------------------------------
    Convergence Criteria    1.00e-06 *    3.00e-04 *             o    1.20e-03 *             o
  ---------------------------------------------------------------------------------------------
      4    -274.94752773   -1.12e-06      6.54e-05 *    1.08e-05 o    2.96e-04 *    1.21e-04 o  ~
  ---------------------------------------------------------------------------------------------


  **** Optimization is complete! (in 4 steps) ****

  ==> Optimization Summary <==

  Measures of convergence in internal coordinates in au.
  --------------------------------------------------------------------------------------------------------------- ~
   Step         Total Energy             Delta E       MAX Force       RMS Force        MAX Disp        RMS Disp  ~
  --------------------------------------------------------------------------------------------------------------- ~
      1    -274.946663882436   -274.946663882436      0.00365828      0.00108229      0.05251115      0.02263048  ~
      2    -274.947465082334     -0.000801199898      0.00212895      0.00046012      0.01087222      0.00368326  ~
      3    -274.947526607352     -0.000061525018      0.00017581      0.00005162      0.00233662      0.00106843  ~
      4    -274.947527732100     -0.000001124747      0.00006535      0.00001080      0.00029607      0.00012105  ~
  --------------------------------------------------------------------------------------------------------------- ~

	Writing optimization data to binary file.
	Final energy is   -274.9475277320995
	Final (previous) structure:
	Cartesian Geometry (in Angstrom)
	    C    -1.0234356357   0.0009048418  -0.3189640376
	    C    -0.3016504725   1.2512069300   0.1757156585
	    C    -0.3016293164  -1.2521964662   0.1685496331
	    C     1.1717605538   1.2570219103  -0.2095145670
	    C     1.1717796282  -1.2557818385  -0.2167126630
	    C     1.8783991150  -0.0007805740   0.2777509362
	    C    -2.4864502525  -0.0002846353   0.0918916097
	    H    -0.9756062537   0.0040494411  -1.4178843959
	    H    -0.3909771196   1.2976695284   1.2698371636
	    H    -0.8000195352   2.1459422893  -0.2124975600
	    H    -0.7999860573  -2.1447040821  -0.2247743989
	    H    -0.3909497910  -1.3049194616   1.2623874470
	    H     1.6635761103   2.1492366019   0.1899652737
	    H     1.2582143370   1.3180165921  -1.3018482314
	    H     1.2582324259  -1.3105151818  -1.3093780496
	    H     1.6636102707  -2.1502630113   0.1776474424
	    H     2.9238751679   0.0001527081  -0.0454293388
	    H     1.8914724966  -0.0039238763   1.3751915645
	    H    -2.5825736891  -0.0033347400   1.1823848264
	    H    -3.0070318959   0.8846786747  -0.2840863566
	    H    -3.0069853235  -0.8831590982  -0.2890289433
	Saving final (previous) structure.
			--------------------------
			 OPTKING Finished Execution 
			--------------------------

    Final optimized geometry and variables:
    Molecular point group: c1
    Full point group: C1

    Geometry (in Angstrom), charge = 0, multiplicity = 1:

    C           -1.023435639718     0.000904841840    -0.318964038865
    C           -0.301650473674     1.251206934958     0.175715659184
    C           -0.301629317578    -1.252196471170     0.168549633763
    C            1.171760558400     1.257021915206    -0.209514567810
    C            1.171779632767    -1.255781843426    -0.216712663832
    C            1.878399122396    -0.000780573994     0.277750937278
    C           -2.486450262296    -0.000284635341     0.091891610036
    H           -0.975606257497     0.004049441078    -1.417884401433
    H           -0.390977121095     1.297669533501     1.269837168616
    H           -0.800019538394     2.145942297768    -0.212497560847
    H           -0.799986060410    -2.144704090497    -0.224774399832
    H           -0.390949792571    -1.304919466766     1.262387451956
    H            1.663576116839     2.149236610311     0.189965274418
    H            1.258214341938     1.318016597325    -1.301848236516
    H            1.258232430866    -1.310515186917    -1.309378054724
    H            1.663610277224    -2.150263019739     0.177647443120
    H            2.923875179362     0.000152708129    -0.045429338949
    H            1.891472504076    -0.003923876358     1.375191569942
    H           -2.582573699260    -0.003334740039     1.182384831001
    H           -3.007031907723     0.884678678132    -0.284086357753
    H           -3.006985335337    -0.883159101714    -0.289028944471

	Removing binary optimization data file.
	Cleaning optimization helper files.

    Psi4 stopped on: Tuesday, 18 January 2022 09:23PM
    Psi4 wall time for execution: 0:02:44.98

*** Psi4 exiting successfully. Buy a developer a beer!
