
    -----------------------------------------------------------------------
          Psi4: An Open-Source Ab Initio Electronic Structure Package
                               Psi4 1.3.2 release

                         Git: Rev {} zzzzzzz 


    R. M. Parrish, L. A. Burns, D. G. A. Smith, A. C. Simmonett,
    A. E. DePrince III, E. G. Hohenstein, U. Bozkaya, A. Yu. Sokolov,
    R. Di Remigio, R. M. Richard, J. F. Gonthier, A. M. James,
    H. R. McAlexander, A. Kumar, M. Saitow, X. Wang, B. P. Pritchard,
    P. Verma, H. F. Schaefer III, K. Patkowski, R. A. King, E. F. Valeev,
    F. A. Evangelista, J. M. Turney, T. D. Crawford, and C. D. Sherrill,
    J. Chem. Theory Comput. 13(7) pp 3185--3197 (2017).
    (doi: 10.1021/acs.jctc.7b00174)


                         Additional Contributions by
    P. Kraus, H. Kruse, M. H. Lechner, M. C. Schieber, R. A. Shaw,
    A. Alenaizan, R. Galvelis, Z. L. Glick, S. Lehtola, and J. P. Misiewicz

    -----------------------------------------------------------------------


    Psi4 started on: Saturday, 10 July 2021 01:52PM

    Process ID: 1380846
    Host:       thinkpad
    PSIDATADIR: /usr/share/psi4
    Memory:     500.0 MiB
    Threads:    4
    
  ==> Input File <==

--------------------------------------------------------------------------
memory 8 gb

molecule {
0 1
 C          1.0148624915       -0.0000400421       -0.3283006110
 C          0.2972395851       -1.2475666412        0.1919026741
 C          0.2972564863        1.2475248519        0.1918485188
 C         -1.1708227883       -1.2510743157       -0.2242068556
 C         -1.1708436542        1.2511117861       -0.2241381751
 C         -1.8753009847       -0.0000026830        0.2903253085
 C          2.4992409616        0.0000393210        0.0735327980
 H          0.9390860475       -0.0000824209       -1.4212442033
 H          0.3635164077       -1.2697640648        1.2825462469
 H          0.7912123566       -2.1427594029       -0.1932088909
 H          0.7912717510        2.1426911525       -0.1932702831
 H          0.3635555286        1.2697264825        1.2824930068
 H         -1.6643008996       -2.1443483903        0.1652894227
 H         -1.2379911940       -1.2811124455       -1.3145011705
 H         -1.2381369891        1.2812912642       -1.3144183595
 H         -1.6642659655        2.1443434782        0.1655323060
 H         -2.9192155637        0.0000062528       -0.0308065418
 H         -1.8609767839       -0.0000484524        1.3828077355
 H          2.7417560034       -0.8803944933        0.6640012750
 H          3.1460779888        0.0040584929       -0.7998774312
 H          2.7398160937        0.8764845811        0.6706788221
}

# This conformer is harder to optimize than the others
set geom_maxiter 250
set opt_coordinates both

set basis def2-tzvp
optimize('pbe0')
--------------------------------------------------------------------------

  Memory set to   7.451 GiB by Python driver.
gradient() will perform analytic gradient computation.

*** tstart() called on thinkpad
*** at Sat Jul 10 13:52:57 2021

   => Loading Basis Set <=

    Name: DEF2-TZVP
    Role: ORBITAL
    Keyword: BASIS
    atoms 1-7  entry C          line   123 file /usr/share/psi4/basis/def2-tzvp.gbs 
    atoms 8-21 entry H          line    15 file /usr/share/psi4/basis/def2-tzvp.gbs 


         ---------------------------------------------------------
                                   SCF
               by Justin Turney, Rob Parrish, Andy Simmonett
                          and Daniel G. A. Smith
                              RKS Reference
                        4 Threads,   7629 MiB Core
         ---------------------------------------------------------

  ==> Geometry <==

    Molecular point group: c1
    Full point group: C1

    Geometry (in Angstrom), charge = 0, multiplicity = 1:

       Center              X                  Y                   Z               Mass       
    ------------   -----------------  -----------------  -----------------  -----------------
         C            1.014851328131    -0.000040042898    -0.328303602145    12.000000000000
         C            0.297228421731    -1.247566641998     0.191899682955    12.000000000000
         C            0.297245322931     1.247524851102     0.191845527655    12.000000000000
         C           -1.170833951669    -1.251074316498    -0.224209846745    12.000000000000
         C           -1.170854817569     1.251111785302    -0.224141166245    12.000000000000
         C           -1.875312148069    -0.000002683798     0.290322317355    12.000000000000
         C            2.499229798231     0.000039320202     0.073529806855    12.000000000000
         H            0.939074884131    -0.000082421698    -1.421247194445     1.007825032230
         H            0.363505244331    -1.269764065598     1.282543255755     1.007825032230
         H            0.791201193231    -2.142759403698    -0.193211882045     1.007825032230
         H            0.791260587631     2.142691151702    -0.193273274245     1.007825032230
         H            0.363544365231     1.269726481702     1.282490015655     1.007825032230
         H           -1.664312062969    -2.144348391098     0.165286431555     1.007825032230
         H           -1.238002357369    -1.281112446298    -1.314504161645     1.007825032230
         H           -1.238148152469     1.281291263402    -1.314421350645     1.007825032230
         H           -1.664277128869     2.144343477402     0.165529314855     1.007825032230
         H           -2.919226727069     0.000006252002    -0.030809532945     1.007825032230
         H           -1.860987947269    -0.000048453198     1.382804744355     1.007825032230
         H            2.741744840031    -0.880394494098     0.663998283855     1.007825032230
         H            3.146066825431     0.004058492102    -0.799880422345     1.007825032230
         H            2.739804930331     0.876484580302     0.670675830955     1.007825032230

  Running in c1 symmetry.

  Rotational constants: A =      0.14232  B =      0.07338  C =      0.05362 [cm^-1]
  Rotational constants: A =   4266.62657  B =   2200.02389  C =   1607.56175 [MHz]
  Nuclear repulsion =  330.174026794302051

  Charge       = 0
  Multiplicity = 1
  Electrons    = 56
  Nalpha       = 28
  Nbeta        = 28

  ==> Algorithm <==

  SCF Algorithm Type is DF.
  DIIS enabled.
  MOM disabled.
  Fractional occupation disabled.
  Guess Type is SAD.
  Energy threshold   = 1.00e-08
  Density threshold  = 1.00e-08
  Integral threshold = 0.00e+00

  ==> Primary Basis <==

  Basis Set: DEF2-TZVP
    Blend: DEF2-TZVP
    Number of shells: 133
    Number of basis function: 301
    Number of Cartesian functions: 336
    Spherical Harmonics?: true
    Max angular momentum: 3

  ==> DFT Potential <==

   => Composite Functional: PBE0 <= 

    PBE0 Hyb-GGA Exchange-Correlation Functional

    C. Adamo and V. Barone, J. Chem. Phys. 110, 6158 (1999)
    M. Ernzerhof and G. E. Scuseria, J. Chem. Phys. 110, 5029 (1999)

    Deriv               =              1
    GGA                 =           TRUE
    Meta                =          FALSE

    Exchange Hybrid     =           TRUE
    MP2 Hybrid          =          FALSE

   => Exchange Functionals <=

    0.7500   Perdew, Burke & Ernzerhof

   => Exact (HF) Exchange <=

    0.2500               HF 

   => Correlation Functionals <=

    1.0000   Perdew, Burke & Ernzerhof

   => Molecular Quadrature <=

    Radial Scheme          =       TREUTLER
    Pruning Scheme         =           FLAT
    Nuclear Scheme         =       TREUTLER

    BS radius alpha        =              1
    Pruning alpha          =              1
    Radial Points          =             75
    Spherical Points       =            302
    Total Points           =         472057
    Total Blocks           =           3445
    Max Points             =            256
    Max Functions          =            290

   => Loading Basis Set <=

    Name: (DEF2-TZVP AUX)
    Role: JKFIT
    Keyword: DF_BASIS_SCF
    atoms 1-7  entry C          line   203 file /usr/share/psi4/basis/def2-tzvp-jkfit.gbs 
    atoms 8-21 entry H          line    23 file /usr/share/psi4/basis/def2-tzvp-jkfit.gbs 

  ==> Pre-Iterations <==

   -------------------------------------------------------
    Irrep   Nso     Nmo     Nalpha   Nbeta   Ndocc  Nsocc
   -------------------------------------------------------
     A        301     301       0       0       0       0
   -------------------------------------------------------
    Total     301     301      28      28      28       0
   -------------------------------------------------------

  ==> Integral Setup <==

  DFHelper Memory: AOs need 0.533 GiB; user supplied 2.617 GiB. Using in-core AOs.

  ==> MemDFJK: Density-Fitted J/K Matrices <==

    J tasked:                   Yes
    K tasked:                   Yes
    wK tasked:                   No
    OpenMP threads:               4
    Memory [MiB]:              2679
    Algorithm:                 Core
    Schwarz Cutoff:           1E-12
    Mask sparsity (%):       3.1788
    Fitting Condition:        1E-10

   => Auxiliary Basis Set <=

  Basis Set: (DEF2-TZVP AUX)
    Blend: DEF2-TZVP-JKFIT
    Number of shells: 259
    Number of basis function: 777
    Number of Cartesian functions: 903
    Spherical Harmonics?: true
    Max angular momentum: 4

  Cached 100.0% of DFT collocation blocks in 2.971 [GiB].

  Minimum eigenvalue in the overlap matrix is 8.6910984936E-05.
  Using Symmetric Orthogonalization.

  SCF Guess: Superposition of Atomic Densities via on-the-fly atomic UHF.

  ==> Iterations <==

                           Total Energy        Delta E     RMS |[F,P]|

   @DF-RKS iter SAD:  -274.60982201581021   -2.74610e+02   0.00000e+00 
   @DF-RKS iter   1:  -274.14393047474351    4.65892e-01   4.10309e-03 DIIS
   @DF-RKS iter   2:  -273.40168217458222    7.42248e-01   5.64144e-03 DIIS
   @DF-RKS iter   3:  -274.92717185924016   -1.52549e+00   5.81863e-04 DIIS
   @DF-RKS iter   4:  -274.93869808797939   -1.15262e-02   2.70405e-04 DIIS
   @DF-RKS iter   5:  -274.94167858209403   -2.98049e-03   5.39421e-05 DIIS
   @DF-RKS iter   6:  -274.94179876231067   -1.20180e-04   8.00771e-06 DIIS
   @DF-RKS iter   7:  -274.94180150880851   -2.74650e-06   2.69301e-06 DIIS
   @DF-RKS iter   8:  -274.94180180941652   -3.00608e-07   7.02764e-07 DIIS
   @DF-RKS iter   9:  -274.94180182927585   -1.98593e-08   1.51595e-07 DIIS
   @DF-RKS iter  10:  -274.94180183029465   -1.01880e-09   3.73168e-08 DIIS
   @DF-RKS iter  11:  -274.94180183035900   -6.43468e-11   8.89270e-09 DIIS
  Energy and wave function converged.


  ==> Post-Iterations <==

    Orbital Energies [Eh]
    ---------------------

    Doubly Occupied:                                                      

       1A    -10.216420     2A    -10.207805     3A    -10.207591  
       4A    -10.207454     5A    -10.206956     6A    -10.206940  
       7A    -10.199502     8A     -0.859933     9A     -0.783272  
      10A     -0.759860    11A     -0.691472    12A     -0.622530  
      13A     -0.598009    14A     -0.568034    15A     -0.485983  
      16A     -0.460502    17A     -0.451374    18A     -0.443881  
      19A     -0.423324    20A     -0.396455    21A     -0.384526  
      22A     -0.375402    23A     -0.353702    24A     -0.350171  
      25A     -0.338877    26A     -0.324256    27A     -0.301072  
      28A     -0.298276  

    Virtual:                                                              

      29A      0.046889    30A      0.061345    31A      0.066085  
      32A      0.076291    33A      0.100771    34A      0.105909  
      35A      0.113829    36A      0.121821    37A      0.122654  
      38A      0.129534    39A      0.138800    40A      0.139710  
      41A      0.144304    42A      0.155108    43A      0.177796  
      44A      0.191149    45A      0.204148    46A      0.219704  
      47A      0.226415    48A      0.239914    49A      0.241686  
      50A      0.245981    51A      0.258189    52A      0.267714  
      53A      0.280759    54A      0.291963    55A      0.294498  
      56A      0.309995    57A      0.313085    58A      0.345684  
      59A      0.364928    60A      0.386190    61A      0.395899  
      62A      0.416703    63A      0.420890    64A      0.428929  
      65A      0.433256    66A      0.439205    67A      0.440510  
      68A      0.451773    69A      0.455294    70A      0.456867  
      71A      0.460397    72A      0.463579    73A      0.468029  
      74A      0.476323    75A      0.484697    76A      0.497812  
      77A      0.500514    78A      0.500739    79A      0.509821  
      80A      0.517596    81A      0.530782    82A      0.531082  
      83A      0.606075    84A      0.610899    85A      0.626967  
      86A      0.656109    87A      0.681356    88A      0.685350  
      89A      0.708879    90A      0.765811    91A      0.784545  
      92A      0.787279    93A      0.799182    94A      0.814226  
      95A      0.843560    96A      0.858758    97A      0.870000  
      98A      0.881262    99A      0.905913   100A      0.931771  
     101A      0.942523   102A      0.964287   103A      0.987305  
     104A      0.992578   105A      1.020183   106A      1.038266  
     107A      1.045350   108A      1.074911   109A      1.091303  
     110A      1.105982   111A      1.125639   112A      1.161305  
     113A      1.167071   114A      1.175058   115A      1.175936  
     116A      1.192612   117A      1.201201   118A      1.229625  
     119A      1.270608   120A      1.284249   121A      1.294239  
     122A      1.299812   123A      1.323929   124A      1.377283  
     125A      1.395841   126A      1.446022   127A      1.488303  
     128A      1.520284   129A      1.540667   130A      1.549009  
     131A      1.569768   132A      1.581128   133A      1.592078  
     134A      1.600870   135A      1.625168   136A      1.626558  
     137A      1.631431   138A      1.660006   139A      1.667071  
     140A      1.684144   141A      1.692345   142A      1.708287  
     143A      1.730206   144A      1.762549   145A      1.772221  
     146A      1.800764   147A      1.801200   148A      1.806484  
     149A      1.862569   150A      1.901297   151A      1.901890  
     152A      1.924365   153A      1.960808   154A      1.986669  
     155A      2.006170   156A      2.014191   157A      2.015804  
     158A      2.044531   159A      2.066401   160A      2.091238  
     161A      2.156403   162A      2.168940   163A      2.184030  
     164A      2.199605   165A      2.205007   166A      2.209179  
     167A      2.231461   168A      2.253377   169A      2.272891  
     170A      2.296649   171A      2.334117   172A      2.374200  
     173A      2.406324   174A      2.409479   175A      2.434400  
     176A      2.439810   177A      2.463701   178A      2.468795  
     179A      2.510595   180A      2.533026   181A      2.542154  
     182A      2.549468   183A      2.563852   184A      2.571416  
     185A      2.578329   186A      2.587829   187A      2.601849  
     188A      2.616556   189A      2.621909   190A      2.641756  
     191A      2.654489   192A      2.664702   193A      2.682362  
     194A      2.698272   195A      2.706868   196A      2.707100  
     197A      2.754630   198A      2.764180   199A      2.793046  
     200A      2.804704   201A      2.831238   202A      2.837747  
     203A      2.847579   204A      2.875795   205A      2.907173  
     206A      2.929475   207A      2.968286   208A      2.985862  
     209A      2.991436   210A      3.010527   211A      3.016927  
     212A      3.049599   213A      3.078334   214A      3.087871  
     215A      3.110533   216A      3.125171   217A      3.137063  
     218A      3.169254   219A      3.169807   220A      3.186774  
     221A      3.214829   222A      3.215178   223A      3.253517  
     224A      3.283997   225A      3.288261   226A      3.305045  
     227A      3.312695   228A      3.324545   229A      3.360007  
     230A      3.384351   231A      3.395736   232A      3.404278  
     233A      3.411540   234A      3.452369   235A      3.457194  
     236A      3.472388   237A      3.488348   238A      3.516318  
     239A      3.518692   240A      3.524817   241A      3.557191  
     242A      3.561075   243A      3.571188   244A      3.596886  
     245A      3.610054   246A      3.645340   247A      3.661303  
     248A      3.673274   249A      3.676717   250A      3.695926  
     251A      3.732894   252A      3.753855   253A      3.779580  
     254A      3.803291   255A      3.822709   256A      3.897828  
     257A      3.939671   258A      3.962799   259A      3.991864  
     260A      4.022439   261A      4.036426   262A      4.061810  
     263A      4.077837   264A      4.081008   265A      4.112864  
     266A      4.157197   267A      4.170926   268A      4.205643  
     269A      4.254718   270A      4.257255   271A      4.292410  
     272A      4.307438   273A      4.311242   274A      4.363498  
     275A      4.394993   276A      4.400404   277A      4.475820  
     278A      4.496493   279A      4.545818   280A      4.550303  
     281A      4.626227   282A      4.653166   283A      4.661518  
     284A      4.731125   285A      4.749993   286A      4.786432  
     287A      4.815198   288A      4.836828   289A      4.889082  
     290A      4.891232   291A      5.009334   292A      5.100953  
     293A      5.117015   294A      5.216834   295A     22.417224  
     296A     22.527064   297A     22.565892   298A     22.603691  
     299A     22.614564   300A     22.720612   301A     22.802672  

    Final Occupation by Irrep:
              A 
    DOCC [    28 ]

  @DF-RKS Final Energy:  -274.94180183035900

   => Energetics <=

    Nuclear Repulsion Energy =            330.1740267943020513
    One-Electron Energy =               -1023.4478254763447467
    Two-Electron Energy =                 451.0078604902523693
    DFT Exchange-Correlation Energy =     -32.6758636385686074
    Empirical Dispersion Energy =           0.0000000000000000
    VV10 Nonlocal Energy =                  0.0000000000000000
    Total Energy =                       -274.9418018303589974

Computation Completed


Properties will be evaluated at   0.000000,   0.000000,   0.000000 [a0]

Properties computed using the SCF density matrix

  Nuclear Dipole Moment: [e a0]
     X:     1.2105      Y:     0.0001      Z:     0.3243

  Electronic Dipole Moment: [e a0]
     X:    -1.2432      Y:    -0.0000      Z:    -0.3577

  Dipole Moment: [e a0]
     X:    -0.0327      Y:     0.0000      Z:    -0.0334     Total:     0.0467

  Dipole Moment: [D]
     X:    -0.0831      Y:     0.0001      Z:    -0.0849     Total:     0.1188


*** tstop() called on thinkpad at Sat Jul 10 13:53:35 2021
Module time:
	user time   =     129.14 seconds =       2.15 minutes
	system time =       2.09 seconds =       0.03 minutes
	total time  =         38 seconds =       0.63 minutes
Total time:
	user time   =     129.14 seconds =       2.15 minutes
	system time =       2.09 seconds =       0.03 minutes
	total time  =         38 seconds =       0.63 minutes

*** tstart() called on thinkpad
*** at Sat Jul 10 13:53:35 2021


         ------------------------------------------------------------
                                   SCF GRAD                          
                          Rob Parrish, Justin Turney,                
                       Andy Simmonett, and Alex Sokolov              
         ------------------------------------------------------------

  ==> Geometry <==

    Molecular point group: c1
    Full point group: C1

    Geometry (in Angstrom), charge = 0, multiplicity = 1:

       Center              X                  Y                   Z               Mass       
    ------------   -----------------  -----------------  -----------------  -----------------
         C            1.014851328131    -0.000040042898    -0.328303602145    12.000000000000
         C            0.297228421731    -1.247566641998     0.191899682955    12.000000000000
         C            0.297245322931     1.247524851102     0.191845527655    12.000000000000
         C           -1.170833951669    -1.251074316498    -0.224209846745    12.000000000000
         C           -1.170854817569     1.251111785302    -0.224141166245    12.000000000000
         C           -1.875312148069    -0.000002683798     0.290322317355    12.000000000000
         C            2.499229798231     0.000039320202     0.073529806855    12.000000000000
         H            0.939074884131    -0.000082421698    -1.421247194445     1.007825032230
         H            0.363505244331    -1.269764065598     1.282543255755     1.007825032230
         H            0.791201193231    -2.142759403698    -0.193211882045     1.007825032230
         H            0.791260587631     2.142691151702    -0.193273274245     1.007825032230
         H            0.363544365231     1.269726481702     1.282490015655     1.007825032230
         H           -1.664312062969    -2.144348391098     0.165286431555     1.007825032230
         H           -1.238002357369    -1.281112446298    -1.314504161645     1.007825032230
         H           -1.238148152469     1.281291263402    -1.314421350645     1.007825032230
         H           -1.664277128869     2.144343477402     0.165529314855     1.007825032230
         H           -2.919226727069     0.000006252002    -0.030809532945     1.007825032230
         H           -1.860987947269    -0.000048453198     1.382804744355     1.007825032230
         H            2.741744840031    -0.880394494098     0.663998283855     1.007825032230
         H            3.146066825431     0.004058492102    -0.799880422345     1.007825032230
         H            2.739804930331     0.876484580302     0.670675830955     1.007825032230

  Nuclear repulsion =  330.174026794302051

  ==> Basis Set <==

  Basis Set: DEF2-TZVP
    Blend: DEF2-TZVP
    Number of shells: 133
    Number of basis function: 301
    Number of Cartesian functions: 336
    Spherical Harmonics?: true
    Max angular momentum: 3

  ==> DFJKGrad: Density-Fitted SCF Gradients <==

    Gradient:                    1
    J tasked:                  Yes
    K tasked:                  Yes
    wK tasked:                  No
    OpenMP threads:              4
    Integrals threads:           4
    Memory [MiB]:             5722
    Schwarz Cutoff:          0E+00
    Fitting Condition:       1E-10

   => Auxiliary Basis Set <=

  Basis Set: (DEF2-TZVP AUX)
    Blend: DEF2-TZVP-JKFIT
    Number of shells: 259
    Number of basis function: 777
    Number of Cartesian functions: 903
    Spherical Harmonics?: true
    Max angular momentum: 4

  ==> DFT Potential <==

   => Composite Functional: PBE0 <= 

    PBE0 Hyb-GGA Exchange-Correlation Functional

    C. Adamo and V. Barone, J. Chem. Phys. 110, 6158 (1999)
    M. Ernzerhof and G. E. Scuseria, J. Chem. Phys. 110, 5029 (1999)

    Deriv               =              1
    GGA                 =           TRUE
    Meta                =          FALSE

    Exchange Hybrid     =           TRUE
    MP2 Hybrid          =          FALSE

   => Exchange Functionals <=

    0.7500   Perdew, Burke & Ernzerhof

   => Exact (HF) Exchange <=

    0.2500               HF 

   => Correlation Functionals <=

    1.0000   Perdew, Burke & Ernzerhof

   => Molecular Quadrature <=

    Radial Scheme          =       TREUTLER
    Pruning Scheme         =           FLAT
    Nuclear Scheme         =       TREUTLER

    BS radius alpha        =              1
    Pruning alpha          =              1
    Radial Points          =             75
    Spherical Points       =            302
    Total Points           =         472057
    Total Blocks           =           3445
    Max Points             =            256
    Max Functions          =            290


  -Total Gradient:
     Atom            X                  Y                   Z
    ------   -----------------  -----------------  -----------------
       1       -0.002758651021     0.000005011104    -0.010475896107
       2        0.004086355309    -0.002957459821     0.010565661375
       3        0.004084955170     0.002945342119     0.010578477013
       4       -0.001353360670    -0.001646569398    -0.008666395934
       5       -0.001356133613     0.001647995829    -0.008659719362
       6       -0.002043791089    -0.000000702098     0.008869576876
       7        0.005837322811     0.000008454955     0.003409266511
       8        0.000557542006     0.000008277470     0.000782374310
       9       -0.001524018940     0.000863307643    -0.002519815905
      10       -0.001780176702     0.001611951947    -0.001260644522
      11       -0.001777966299    -0.001617443967    -0.001262016030
      12       -0.001527895835    -0.000858774882    -0.002515307481
      13        0.001055440088     0.001682247229     0.001305372397
      14        0.000773205223     0.001214851769     0.002106789727
      15        0.000774260301    -0.001214362206     0.002107328448
      16        0.001053514267    -0.001682567057     0.001307013581
      17        0.001850801837     0.000000395720    -0.001354720972
      18        0.001266051430    -0.000001165699    -0.002356037517
      19       -0.002001303034     0.002429496473    -0.001789862815
      20       -0.003222550280    -0.000027550943     0.001660174230
      21       -0.001989156779    -0.002410678102    -0.001833592379


*** tstop() called on thinkpad at Sat Jul 10 13:53:48 2021
Module time:
	user time   =      46.62 seconds =       0.78 minutes
	system time =       0.56 seconds =       0.01 minutes
	total time  =         13 seconds =       0.22 minutes
Total time:
	user time   =     175.76 seconds =       2.93 minutes
	system time =       2.65 seconds =       0.04 minutes
	total time  =         51 seconds =       0.85 minutes

			-----------------------------------------
			 OPTKING 2.0: for geometry optimizations 
			  - R.A. King,  Bethel University        
			-----------------------------------------

	Internal coordinates to be generated automatically.
	Detected frag 1 with atoms:  1 2 3 4 5 6 7 8 9 10 11 12 13 14 15 16 17 18 19 20
	 21
	---Fragment 1 Bond Connectivity---
	 1 : 2 3 7 8
	 2 : 1 4 9 10
	 3 : 1 5 11 12
	 4 : 2 6 13 14
	 5 : 3 6 15 16
	 6 : 4 5 17 18
	 7 : 1 19 20 21
	 8 : 1
	 9 : 2
	 10 : 2
	 11 : 3
	 12 : 3
	 13 : 4
	 14 : 4
	 15 : 5
	 16 : 5
	 17 : 6
	 18 : 6
	 19 : 7
	 20 : 7
	 21 : 7

	---Fragment 1 Geometry and Gradient---
	 C           1.9177910682       -0.0000756701       -0.6204038941
	 C           0.5616803138       -2.3575592766        0.3626378443
	 C           0.5617122524        2.3574803033        0.3625355057
	 C          -2.2125555070       -2.3641878208       -0.4236952050
	 C          -2.2125949379        2.3642586266       -0.4235654176
	 C          -3.5438263596       -0.0000050716        0.5486296679
	 C           4.7228598432        0.0000743044        0.1389511970
	 H           1.7745943423       -0.0001557544       -2.6857679541
	 H           0.6869253570       -2.3995063279        2.4236554974
	 H           1.4951535653       -4.0492284257       -0.3651175412
	 H           1.4952658045        4.0490994482       -0.3652335557
	 H           0.6869992847        2.3994353047        2.4235548882
	 H          -3.1450939863       -4.0522311767        0.3123460879
	 H          -2.3394853981       -2.4209516594       -2.4840528563
	 H          -2.3397609109        2.4212895748       -2.4838963662
	 H          -3.1450279704        4.0522218912        0.3128050708
	 H          -5.5165390123        0.0000118146       -0.0582215793
	 H          -3.5167575431       -0.0000915633        2.6131222518
	 H           5.1811468535       -1.6637044762        1.2547749043
	 H           5.9452046725        0.0076694386       -1.5115549313
	 H           5.1774809555        1.6563158100        1.2673936395
	            -0.0027586510        0.0000050111       -0.0104758961
	             0.0040863553       -0.0029574598        0.0105656614
	             0.0040849552        0.0029453421        0.0105784770
	            -0.0013533607       -0.0016465694       -0.0086663959
	            -0.0013561336        0.0016479958       -0.0086597194
	            -0.0020437911       -0.0000007021        0.0088695769
	             0.0058373228        0.0000084550        0.0034092665
	             0.0005575420        0.0000082775        0.0007823743
	            -0.0015240189        0.0008633076       -0.0025198159
	            -0.0017801767        0.0016119519       -0.0012606445
	            -0.0017779663       -0.0016174440       -0.0012620160
	            -0.0015278958       -0.0008587749       -0.0025153075
	             0.0010554401        0.0016822472        0.0013053724
	             0.0007732052        0.0012148518        0.0021067897
	             0.0007742603       -0.0012143622        0.0021073284
	             0.0010535143       -0.0016825671        0.0013070136
	             0.0018508018        0.0000003957       -0.0013547210
	             0.0012660514       -0.0000011657       -0.0023560375
	            -0.0020013030        0.0024294965       -0.0017898628
	            -0.0032225503       -0.0000275509        0.0016601742
	            -0.0019891568       -0.0024106781       -0.0018335924

	Previous optimization step data not found.  Starting new optimization.

	---Fragment 1 Intrafragment Coordinates---
	 - Coordinate -           - BOHR/RAD -       - ANG/DEG -
	 R(1,2)           =         2.891909	       1.530332
	 R(1,3)           =         2.891918	       1.530337
	 R(1,7)           =         2.906034	       1.537807
	 R(1,8)           =         2.070322	       1.095567
	 R(2,4)           =         2.883530	       1.525899
	 R(2,9)           =         2.065246	       1.092881
	 R(2,10)          =         2.064642	       1.092561
	 R(3,5)           =         2.883536	       1.525902
	 R(3,11)          =         2.064642	       1.092561
	 R(3,12)          =         2.065250	       1.092883
	 R(4,6)           =         2.882197	       1.525193
	 R(4,13)          =         2.064189	       1.092322
	 R(4,14)          =         2.065044	       1.092774
	 R(5,6)           =         2.882201	       1.525195
	 R(5,15)          =         2.065039	       1.092772
	 R(5,16)          =         2.064193	       1.092324
	 R(6,17)          =         2.063944	       1.092192
	 R(6,18)          =         2.064670	       1.092576
	 R(7,19)          =         2.055055	       1.087488
	 R(7,20)          =         2.053863	       1.086858
	 R(7,21)          =         2.055042	       1.087482
	 B(1,2,4)         =         1.939423	     111.120767
	 B(1,2,9)         =         1.904296	     109.108123
	 B(1,2,10)        =         1.913570	     109.639488
	 B(1,3,5)         =         1.939507	     111.125590
	 B(1,3,11)        =         1.913566	     109.639284
	 B(1,3,12)        =         1.904252	     109.105577
	 B(1,7,19)        =         1.935951	     110.921810
	 B(1,7,20)        =         1.943872	     111.375670
	 B(1,7,21)        =         1.935917	     110.919856
	 B(2,1,3)         =         1.906187	     109.216473
	 B(2,1,7)         =         1.943203	     111.337341
	 B(2,1,8)         =         1.882466	     107.857359
	 B(2,4,6)         =         1.928907	     110.518238
	 B(2,4,13)        =         1.916957	     109.833541
	 B(2,4,14)        =         1.908455	     109.346396
	 B(3,1,7)         =         1.943110	     111.332007
	 B(3,1,8)         =         1.882495	     107.859017
	 B(3,5,6)         =         1.928901	     110.517859
	 B(3,5,15)        =         1.908486	     109.348188
	 B(3,5,16)        =         1.916944	     109.832826
	 B(4,2,9)         =         1.907565	     109.295399
	 B(4,2,10)        =         1.914505	     109.693064
	 B(4,6,5)         =         1.923817	     110.226577
	 B(4,6,17)        =         1.920153	     110.016665
	 B(4,6,18)        =         1.908410	     109.343841
	 B(5,3,11)        =         1.914539	     109.695010
	 B(5,3,12)        =         1.907499	     109.291667
	 B(5,6,17)        =         1.920138	     110.015825
	 B(5,6,18)        =         1.908435	     109.345261
	 B(6,4,13)        =         1.919665	     109.988691
	 B(6,4,14)        =         1.907891	     109.314102
	 B(6,5,15)        =         1.907897	     109.314459
	 B(6,5,16)        =         1.919646	     109.987590
	 B(7,1,8)         =         1.904390	     109.113497
	 B(9,2,10)        =         1.883574	     107.920859
	 B(11,3,12)       =         1.883566	     107.920378
	 B(13,4,14)       =         1.881281	     107.789444
	 B(15,5,16)       =         1.881282	     107.789526
	 B(17,6,18)       =         1.882343	     107.850284
	 B(19,7,20)       =         1.882422	     107.854849
	 B(19,7,21)       =         1.880746	     107.758825
	 B(20,7,21)       =         1.882447	     107.856276
	 D(1,2,4,6)       =        -1.011280	     -57.942087
	 D(1,2,4,13)      =        -3.132431	    -179.475105
	 D(1,2,4,14)      =         1.089692	      62.434748
	 D(1,3,5,6)       =         1.011118	      57.932815
	 D(1,3,5,15)      =        -1.089877	     -62.445370
	 D(1,3,5,16)      =         3.132233	     179.463736
	 D(2,1,3,5)       =        -1.000944	     -57.349862
	 D(2,1,3,11)      =        -3.120340	    -178.782336
	 D(2,1,3,12)      =         1.103487	      63.225140
	 D(2,1,7,19)      =        -0.017101	      -0.979820
	 D(2,1,7,20)      =         2.079756	     119.161244
	 D(2,1,7,21)      =        -2.106564	    -120.697206
	 D(2,4,6,5)       =         0.999139	      57.246473
	 D(2,4,6,17)      =         3.119662	     178.743470
	 D(2,4,6,18)      =        -1.099301	     -62.985336
	 D(3,1,2,4)       =         1.000997	      57.352905
	 D(3,1,2,9)       =        -1.103491	     -63.225361
	 D(3,1,2,10)      =         3.120298	     178.779916
	 D(3,1,7,19)      =         2.114541	     121.154296
	 D(3,1,7,20)      =        -2.071787	    -118.704641
	 D(3,1,7,21)      =         0.025079	       1.436910
	 D(3,5,6,4)       =        -0.999033	     -57.240385
	 D(3,5,6,17)      =        -3.119565	    -178.737882
	 D(3,5,6,18)      =         1.099393	      62.990569
	 D(4,2,1,7)       =        -3.129333	    -179.297562
	 D(4,2,1,8)       =        -1.040494	     -59.615897
	 D(4,6,5,15)      =         1.102315	      63.157977
	 D(4,6,5,16)      =        -3.118550	    -178.679779
	 D(5,3,1,7)       =         3.129331	     179.297440
	 D(5,3,1,8)       =         1.040528	      59.617890
	 D(5,6,4,13)      =         3.118689	     178.687738
	 D(5,6,4,14)      =        -1.102170	     -63.149681
	 D(6,4,2,9)       =         1.091277	      62.525554
	 D(6,4,2,10)      =        -3.130034	    -179.337743
	 D(6,5,3,11)      =         3.129946	     179.332681
	 D(6,5,3,12)      =        -1.091394	     -62.532269
	 D(7,1,2,9)       =         1.049365	      60.124173
	 D(7,1,2,10)      =        -1.010032	     -57.870551
	 D(7,1,3,11)      =         1.009934	      57.864965
	 D(7,1,3,12)      =        -1.049424	     -60.127559
	 D(8,1,2,9)       =         3.138204	     179.805838
	 D(8,1,2,10)      =         1.078807	      61.811114
	 D(8,1,3,11)      =        -1.078868	     -61.814585
	 D(8,1,3,12)      =        -3.138226	    -179.807108
	 D(8,1,7,19)      =        -2.092883	    -119.913369
	 D(8,1,7,20)      =         0.003974	       0.227694
	 D(8,1,7,21)      =         2.100840	     120.369245
	 D(9,2,4,13)      =        -1.029875	     -59.007464
	 D(9,2,4,14)      =        -3.090936	    -177.097612
	 D(10,2,4,13)     =         1.032000	      59.129239
	 D(10,2,4,14)     =        -1.029062	     -58.960909
	 D(11,3,5,15)     =         1.028950	      58.954496
	 D(11,3,5,16)     =        -1.032125	     -59.136399
	 D(12,3,5,15)     =         3.090796	     177.089546
	 D(12,3,5,16)     =         1.029721	      58.998652
	 D(13,4,6,17)     =        -1.043973	     -59.815265
	 D(13,4,6,18)     =         1.020248	      58.455930
	 D(14,4,6,17)     =         1.018353	      58.347316
	 D(14,4,6,18)     =         3.082575	     176.618511
	 D(15,5,6,17)     =        -1.018217	     -58.339519
	 D(15,5,6,18)     =        -3.082445	    -176.611069
	 D(16,5,6,17)     =         1.044104	      59.822724
	 D(16,5,6,18)     =        -1.020124	     -58.448825
	 R(1,X)           =         1.917791	       1.014851
	 R(1,Y)           =        -0.000076	      -0.000040
	 R(1,Z)           =        -0.620404	      -0.328304
	 R(2,X)           =         0.561680	       0.297228
	 R(2,Y)           =        -2.357559	      -1.247567
	 R(2,Z)           =         0.362638	       0.191900
	 R(3,X)           =         0.561712	       0.297245
	 R(3,Y)           =         2.357480	       1.247525
	 R(3,Z)           =         0.362536	       0.191846
	 R(4,X)           =        -2.212556	      -1.170834
	 R(4,Y)           =        -2.364188	      -1.251074
	 R(4,Z)           =        -0.423695	      -0.224210
	 R(5,X)           =        -2.212595	      -1.170855
	 R(5,Y)           =         2.364259	       1.251112
	 R(5,Z)           =        -0.423565	      -0.224141
	 R(6,X)           =        -3.543826	      -1.875312
	 R(6,Y)           =        -0.000005	      -0.000003
	 R(6,Z)           =         0.548630	       0.290322
	 R(7,X)           =         4.722860	       2.499230
	 R(7,Y)           =         0.000074	       0.000039
	 R(7,Z)           =         0.138951	       0.073530
	 R(8,X)           =         1.774594	       0.939075
	 R(8,Y)           =        -0.000156	      -0.000082
	 R(8,Z)           =        -2.685768	      -1.421247
	 R(9,X)           =         0.686925	       0.363505
	 R(9,Y)           =        -2.399506	      -1.269764
	 R(9,Z)           =         2.423655	       1.282543
	 R(10,X)          =         1.495154	       0.791201
	 R(10,Y)          =        -4.049228	      -2.142759
	 R(10,Z)          =        -0.365118	      -0.193212
	 R(11,X)          =         1.495266	       0.791261
	 R(11,Y)          =         4.049099	       2.142691
	 R(11,Z)          =        -0.365234	      -0.193273
	 R(12,X)          =         0.686999	       0.363544
	 R(12,Y)          =         2.399435	       1.269726
	 R(12,Z)          =         2.423555	       1.282490
	 R(13,X)          =        -3.145094	      -1.664312
	 R(13,Y)          =        -4.052231	      -2.144348
	 R(13,Z)          =         0.312346	       0.165286
	 R(14,X)          =        -2.339485	      -1.238002
	 R(14,Y)          =        -2.420952	      -1.281112
	 R(14,Z)          =        -2.484053	      -1.314504
	 R(15,X)          =        -2.339761	      -1.238148
	 R(15,Y)          =         2.421290	       1.281291
	 R(15,Z)          =        -2.483896	      -1.314421
	 R(16,X)          =        -3.145028	      -1.664277
	 R(16,Y)          =         4.052222	       2.144343
	 R(16,Z)          =         0.312805	       0.165529
	 R(17,X)          =        -5.516539	      -2.919227
	 R(17,Y)          =         0.000012	       0.000006
	 R(17,Z)          =        -0.058222	      -0.030810
	 R(18,X)          =        -3.516758	      -1.860988
	 R(18,Y)          =        -0.000092	      -0.000048
	 R(18,Z)          =         2.613122	       1.382805
	 R(19,X)          =         5.181147	       2.741745
	 R(19,Y)          =        -1.663704	      -0.880394
	 R(19,Z)          =         1.254775	       0.663998
	 R(20,X)          =         5.945205	       3.146067
	 R(20,Y)          =         0.007669	       0.004058
	 R(20,Z)          =        -1.511555	      -0.799880
	 R(21,X)          =         5.177481	       2.739805
	 R(21,Y)          =         1.656316	       0.876485
	 R(21,Z)          =         1.267394	       0.670676

	Current energy   :      -274.9418018304

	Generating empirical Hessian (Schlegel '84) for each fragment.
	Taking RFO optimization step.
	Going to follow RFO solution 1.
	Using RFO vector 1.
	Norm of target step-size    0.11490
	Projected energy change by RFO approximation:        -0.0013285302

	Back-transformation to cartesian coordinates...
	Successfully converged to displaced geometry.

	--- Internal Coordinate Step in ANG or DEG, aJ/ANG or AJ/DEG ---
	 ---------------------------------------------------------------------------
	   Coordinate                Previous        Force       Change         New 
	   ----------                --------       ------       ------       ------
	    1 R(1,2)          =      1.530332    -0.006439    -0.003327     1.527005
	    2 R(1,3)          =      1.530337    -0.006413    -0.003319     1.527018
	    3 R(1,7)          =      1.537807    -0.010092    -0.003453     1.534354
	    4 R(1,8)          =      1.095567     0.006603     0.002652     1.098220
	    5 R(2,4)          =      1.525899    -0.007825    -0.003614     1.522284
	    6 R(2,9)          =      1.092881     0.014930     0.004729     1.097610
	    7 R(2,10)         =      1.092561     0.008408     0.001683     1.094244
	    8 R(3,5)          =      1.525902    -0.007827    -0.003614     1.522287
	    9 R(3,11)         =      1.092561     0.008414     0.001681     1.094242
	   10 R(3,12)         =      1.092883     0.014919     0.004731     1.097614
	   11 R(4,6)          =      1.525193    -0.005488    -0.002684     1.522509
	   12 R(4,13)         =      1.092322     0.005263     0.000906     1.093228
	   13 R(4,14)         =      1.092774     0.011567     0.003678     1.096453
	   14 R(5,6)          =      1.525195    -0.005480    -0.002680     1.522515
	   15 R(5,15)         =      1.092772     0.011561     0.003675     1.096447
	   16 R(5,16)         =      1.092324     0.005261     0.000906     1.093230
	   17 R(6,17)         =      1.092192     0.005174     0.000890     1.093082
	   18 R(6,18)         =      1.092576     0.012757     0.004045     1.096621
	   19 R(7,19)         =      1.087488     0.015615     0.004030     1.091518
	   20 R(7,20)         =      1.086858     0.014786     0.003719     1.090577
	   21 R(7,21)         =      1.087482     0.015646     0.004039     1.091520
	   22 B(1,2,4)        =    111.120767     0.000062     0.580730   111.701497
	   23 B(1,2,9)        =    109.108123    -0.000048    -0.550739   108.557384
	   24 B(1,2,10)       =    109.639488     0.000009     0.260327   109.899815
	   25 B(1,3,5)        =    111.125590     0.000062     0.580508   111.706098
	   26 B(1,3,11)       =    109.639284     0.000009     0.262908   109.902191
	   27 B(1,3,12)       =    109.105577    -0.000048    -0.553221   108.552355
	   28 B(1,7,19)       =    110.921810     0.000047     0.097124   111.018934
	   29 B(1,7,20)       =    111.375670     0.000083     0.463233   111.838903
	   30 B(1,7,21)       =    110.919856     0.000047     0.095001   111.014857
	   31 B(2,1,3)        =    109.216473     0.000009     0.341549   109.558022
	   32 B(2,1,7)        =    111.337341     0.000046     0.460148   111.797489
	   33 B(2,1,8)        =    107.857359    -0.000044    -0.561289   107.296070
	   34 B(2,4,6)        =    110.518238     0.000022     0.327776   110.846014
	   35 B(2,4,13)       =    109.833541     0.000038     0.394276   110.227817
	   36 B(2,4,14)       =    109.346396    -0.000029    -0.374633   108.971764
	   37 B(3,1,7)        =    111.332007     0.000046     0.460006   111.792013
	   38 B(3,1,8)        =    107.859017    -0.000045    -0.560250   107.298767
	   39 B(3,5,6)        =    110.517859     0.000022     0.328315   110.846174
	   40 B(3,5,15)       =    109.348188    -0.000029    -0.374673   108.973515
	   41 B(3,5,16)       =    109.832826     0.000038     0.393859   110.226686
	   42 B(4,2,9)        =    109.295399    -0.000008    -0.164527   109.130872
	   43 B(4,2,10)       =    109.693064     0.000044     0.553746   110.246810
	   44 B(4,6,5)        =    110.226577     0.000036     0.422244   110.648820
	   45 B(4,6,17)       =    110.016665     0.000031     0.359666   110.376331
	   46 B(4,6,18)       =    109.343841    -0.000025    -0.308159   109.035683
	   47 B(5,3,11)       =    109.695010     0.000044     0.554333   110.249343
	   48 B(5,3,12)       =    109.291667    -0.000008    -0.164867   109.126799
	   49 B(5,6,17)       =    110.015825     0.000031     0.359900   110.375725
	   50 B(5,6,18)       =    109.345261    -0.000025    -0.307924   109.037337
	   51 B(6,4,13)       =    109.988691     0.000036     0.432855   110.421546
	   52 B(6,4,14)       =    109.314102    -0.000020    -0.276469   109.037634
	   53 B(6,5,15)       =    109.314459    -0.000020    -0.276292   109.038167
	   54 B(6,5,16)       =    109.987590     0.000036     0.432450   110.420040
	   55 B(7,1,8)        =    109.113497    -0.000018    -0.221025   108.892472
	   56 B(9,2,10)       =    107.920859    -0.000063    -0.741905   107.178954
	   57 B(11,3,12)      =    107.920378    -0.000063    -0.742245   107.178133
	   58 B(13,4,14)      =    107.789444    -0.000050    -0.543046   107.246398
	   59 B(15,5,16)      =    107.789526    -0.000050    -0.542866   107.246660
	   60 B(17,6,18)      =    107.850284    -0.000049    -0.565022   107.285262
	   61 B(19,7,20)      =    107.854849    -0.000066    -0.238714   107.616135
	   62 B(19,7,21)      =    107.758825    -0.000054    -0.217652   107.541172
	   63 B(20,7,21)      =    107.856276    -0.000066    -0.240262   107.616014
	   64 D(1,2,4,6)      =    -57.942087     0.000020     1.127747   -56.814340
	   65 D(1,2,4,13)     =   -179.475105     0.000000     0.098446  -179.376659
	   66 D(1,2,4,14)     =     62.434748     0.000013     0.750294    63.185041
	   67 D(1,3,5,6)      =     57.932815    -0.000020    -1.129195    56.803620
	   68 D(1,3,5,15)     =    -62.445370    -0.000013    -0.752266   -63.197636
	   69 D(1,3,5,16)     =    179.463736    -0.000000    -0.100374   179.363361
	   70 D(2,1,3,5)      =    -57.349862     0.000024     1.278192   -56.071670
	   71 D(2,1,3,11)     =   -178.782336     0.000000     0.006628  -178.775708
	   72 D(2,1,3,12)     =     63.225140     0.000023     1.074066    64.299206
	   73 D(2,1,7,19)     =     -0.979820    -0.000009    -0.622980    -1.602800
	   74 D(2,1,7,20)     =    119.161244    -0.000009    -0.547722   118.613521
	   75 D(2,1,7,21)     =   -120.697206    -0.000008    -0.475910  -121.173116
	   76 D(2,4,6,5)      =     57.246473    -0.000020    -1.032516    56.213957
	   77 D(2,4,6,17)     =    178.743470    -0.000002    -0.057657   178.685813
	   78 D(2,4,6,18)     =    -62.985336    -0.000015    -0.718914   -63.704250
	   79 D(3,1,2,4)      =     57.352905    -0.000024    -1.277293    56.075612
	   80 D(3,1,2,9)      =    -63.225361    -0.000023    -1.075412   -64.300773
	   81 D(3,1,2,10)     =    178.779916    -0.000000    -0.008329   178.771587
	   82 D(3,1,7,19)     =    121.154296     0.000008     0.485090   121.639386
	   83 D(3,1,7,20)     =   -118.704641     0.000009     0.560348  -118.144293
	   84 D(3,1,7,21)     =      1.436910     0.000010     0.632160     2.069070
	   85 D(3,5,6,4)      =    -57.240385     0.000020     1.032890   -56.207495
	   86 D(3,5,6,17)     =   -178.737882     0.000002     0.058177  -178.679705
	   87 D(3,5,6,18)     =     62.990569     0.000015     0.719151    63.709720
	   88 D(4,2,1,7)      =   -179.297562    -0.000002    -0.128544  -179.426106
	   89 D(4,2,1,8)      =    -59.615897    -0.000007    -0.484519   -60.100415
	   90 D(4,6,5,15)     =     63.157977     0.000012     0.597185    63.755162
	   91 D(4,6,5,16)     =   -178.679779     0.000001     0.024938  -178.654841
	   92 D(5,3,1,7)      =    179.297440     0.000002     0.129423   179.426862
	   93 D(5,3,1,8)      =     59.617890     0.000007     0.484759    60.102649
	   94 D(5,6,4,13)     =    178.687738    -0.000001    -0.024073   178.663665
	   95 D(5,6,4,14)     =    -63.149681    -0.000012    -0.596417   -63.746097
	   96 D(6,4,2,9)      =     62.525554     0.000014     0.700314    63.225867
	   97 D(6,4,2,10)     =   -179.337743     0.000001     0.025724  -179.312019
	   98 D(6,5,3,11)     =    179.332681    -0.000001    -0.023372   179.309309
	   99 D(6,5,3,12)     =    -62.532269    -0.000014    -0.698258   -63.230527
	  100 D(7,1,2,9)      =     60.124173    -0.000001     0.073336    60.197509
	  101 D(7,1,2,10)     =    -57.870551     0.000021     1.140419   -56.730132
	  102 D(7,1,3,11)     =     57.864965    -0.000021    -1.142140    56.722825
	  103 D(7,1,3,12)     =    -60.127559     0.000001    -0.074703   -60.202262
	  104 D(8,1,2,9)      =    179.805838    -0.000007    -0.282638   179.523200
	  105 D(8,1,2,10)     =     61.811114     0.000016     0.784444    62.595559
	  106 D(8,1,3,11)     =    -61.814585    -0.000016    -0.786804   -62.601389
	  107 D(8,1,3,12)     =   -179.807108     0.000007     0.280633  -179.526475
	  108 D(8,1,7,19)     =   -119.913369    -0.000001    -0.068328  -119.981697
	  109 D(8,1,7,20)     =      0.227694     0.000000     0.006929     0.234624
	  110 D(8,1,7,21)     =    120.369245     0.000001     0.078742   120.447986
	  111 D(9,2,4,13)     =    -59.007464    -0.000006    -0.328988   -59.336452
	  112 D(9,2,4,14)     =   -177.097612     0.000007     0.322860  -176.774751
	  113 D(10,2,4,13)    =     59.129239    -0.000018    -1.003577    58.125662
	  114 D(10,2,4,14)    =    -58.960909    -0.000006    -0.351729   -59.312638
	  115 D(11,3,5,15)    =     58.954496     0.000006     0.353557    59.308053
	  116 D(11,3,5,16)    =    -59.136399     0.000018     1.005448   -58.130950
	  117 D(12,3,5,15)    =    177.089546    -0.000007    -0.321329   176.768217
	  118 D(12,3,5,16)    =     58.998652     0.000006     0.330562    59.329214
	  119 D(13,4,6,17)    =    -59.815265     0.000018     0.950786   -58.864479
	  120 D(13,4,6,18)    =     58.455930     0.000005     0.289529    58.745459
	  121 D(14,4,6,17)    =     58.347316     0.000006     0.378442    58.725759
	  122 D(14,4,6,18)    =    176.618511    -0.000007    -0.282814   176.335696
	  123 D(15,5,6,17)    =    -58.339519    -0.000006    -0.377528   -58.717048
	  124 D(15,5,6,18)    =   -176.611069     0.000007     0.283446  -176.327623
	  125 D(16,5,6,17)    =     59.822724    -0.000018    -0.949775    58.872950
	  126 D(16,5,6,18)    =    -58.448825    -0.000005    -0.288800   -58.737626
	  127 R(1,X)          =      1.014851    -0.000413     0.001345     1.016197
	  128 R(1,Y)          =     -0.000040    -0.000016    -0.000007    -0.000047
	  129 R(1,Z)          =     -0.328304     0.006501     0.007341    -0.320963
	  130 R(2,X)          =      0.297228    -0.004752    -0.002020     0.295209
	  131 R(2,Y)          =     -1.247567     0.004384     0.000085    -1.247482
	  132 R(2,Z)          =      0.191900    -0.007876    -0.007068     0.184831
	  133 R(3,X)          =      0.297245    -0.004750    -0.002012     0.295233
	  134 R(3,Y)          =      1.247525    -0.004377    -0.000072     1.247453
	  135 R(3,Z)          =      0.191846    -0.007890    -0.007101     0.184744
	  136 R(4,X)          =     -1.170834    -0.000302    -0.001636    -1.172470
	  137 R(4,Y)          =     -1.251074     0.001308    -0.001000    -1.252074
	  138 R(4,Z)          =     -0.224210     0.005144     0.005001    -0.219209
	  139 R(5,X)          =     -1.170855    -0.000295    -0.001631    -1.172486
	  140 R(5,Y)          =      1.251112    -0.001307     0.001000     1.252112
	  141 R(5,Z)          =     -0.224141     0.005124     0.004983    -0.219158
	  142 R(6,X)          =     -1.875312     0.000935    -0.001745    -1.877057
	  143 R(6,Y)          =     -0.000003     0.000002     0.000003     0.000001
	  144 R(6,Z)          =      0.290322    -0.006255    -0.005648     0.284675
	  145 R(7,X)          =      2.499230    -0.008367    -0.000116     2.499114
	  146 R(7,Y)          =      0.000039    -0.000013    -0.000007     0.000033
	  147 R(7,Z)          =      0.073530    -0.002738    -0.000542     0.072988
	  148 R(8,X)          =      0.939075    -0.001711     0.000228     0.939303
	  149 R(8,Y)          =     -0.000082    -0.000019    -0.000034    -0.000116
	  150 R(8,Z)          =     -1.421247    -0.000027     0.004760    -1.416487
	  151 R(9,X)          =      0.363505     0.002591     0.003444     0.366949
	  152 R(9,Y)          =     -1.269764     0.001601    -0.002812    -1.272576
	  153 R(9,Z)          =      1.282543     0.006582    -0.002737     1.279806
	  154 R(10,X)         =      0.791201     0.004371     0.003442     0.794643
	  155 R(10,Y)         =     -2.142759    -0.003032    -0.002279    -2.145039
	  156 R(10,Z)         =     -0.193212    -0.002790     0.000781    -0.192431
	  157 R(11,X)         =      0.791261     0.004361     0.003441     0.794701
	  158 R(11,Y)         =      2.142691     0.003056     0.002304     2.144995
	  159 R(11,Z)         =     -0.193273    -0.002798     0.000772    -0.192501
	  160 R(12,X)         =      0.363544     0.002613     0.003456     0.367000
	  161 R(12,Y)         =      1.269726    -0.001611     0.002802     1.272529
	  162 R(12,Z)         =      1.282490     0.006556    -0.002767     1.279723
	  163 R(13,X)         =     -1.664312    -0.003392    -0.002881    -1.667193
	  164 R(13,Y)         =     -2.144348    -0.005364    -0.004161    -2.148509
	  165 R(13,Z)         =      0.165286     0.000688    -0.001349     0.163937
	  166 R(14,X)         =     -1.238002    -0.002616    -0.002969    -1.240971
	  167 R(14,Y)         =     -1.281112    -0.003172    -0.004220    -1.285332
	  168 R(14,Z)         =     -1.314504    -0.006183     0.001490    -1.313014
	  169 R(15,X)         =     -1.238148    -0.002616    -0.002975    -1.241123
	  170 R(15,Y)         =      1.281291     0.003168     0.004216     1.285507
	  171 R(15,Z)         =     -1.314421    -0.006196     0.001476    -1.312945
	  172 R(16,X)         =     -1.664277    -0.003382    -0.002871    -1.667148
	  173 R(16,Y)         =      2.144343     0.005366     0.004163     2.148507
	  174 R(16,Z)         =      0.165529     0.000668    -0.001363     0.164167
	  175 R(17,X)         =     -2.919227    -0.006265    -0.004825    -2.924052
	  176 R(17,Y)         =      0.000006    -0.000000    -0.000000     0.000006
	  177 R(17,Z)         =     -0.030810    -0.000444     0.001429    -0.029380
	  178 R(18,X)         =     -1.860988    -0.002257    -0.004812    -1.865799
	  179 R(18,Y)         =     -0.000048     0.000008     0.000008    -0.000040
	  180 R(18,Z)         =      1.382805     0.006545    -0.001566     1.381238
	  181 R(19,X)         =      2.741745     0.007486     0.005050     2.746795
	  182 R(19,Y)         =     -0.880394    -0.009140    -0.002076    -0.882470
	  183 R(19,Z)         =      0.663998     0.005901     0.001658     0.665656
	  184 R(20,X)         =      3.146067     0.011291     0.005052     3.151119
	  185 R(20,Y)         =      0.004058     0.000102     0.000091     0.004150
	  186 R(20,Z)         =     -0.799880    -0.006578    -0.001335    -0.801215
	  187 R(21,X)         =      2.739805     0.007432     0.005011     2.744816
	  188 R(21,Y)         =      0.876485     0.009055     0.001995     0.878479
	  189 R(21,Z)         =      0.670676     0.006082     0.001795     0.672471
	 ---------------------------------------------------------------------------
	Successfully symmetrized geometry.

  ==> Convergence Check <==

  Measures of convergence in internal coordinates in au.
  Criteria marked as inactive (o), active & met (*), and active & unmet ( ).
  --------------------------------------------------------------------------------------------- ~
   Step     Total Energy     Delta E     MAX Force     RMS Force      MAX Disp      RMS Disp    ~
  --------------------------------------------------------------------------------------------- ~
    Convergence Criteria    1.00e-06 *    3.00e-04 *             o    1.20e-03 *             o  ~
  --------------------------------------------------------------------------------------------- ~
      1    -274.94180183   -2.75e+02      1.90e-03      7.16e-04 o    2.23e-02      8.35e-03 o  ~
  ---------------------------------------------------------------------------------------------

	Writing optimization data to binary file.
	Structure for next step:
	Cartesian Geometry (in Angstrom)
	    C     1.0161968137  -0.0000470702  -0.3209628855
	    C     0.2952087662  -1.2474818989   0.1848314685
	    C     0.2952329817   1.2474528581   0.1847443932
	    C    -1.1724697854  -1.2520744341  -0.2192088504
	    C    -1.1724861572   1.2521122504  -0.2191581630
	    C    -1.8770572367   0.0000007183   0.2846748123
	    C     2.4991140927   0.0000326787   0.0729880925
	    H     0.9393031020  -0.0001164606  -1.4164872874
	    H     0.3669490708  -1.2725762797   1.2798064650
	    H     0.7946429378  -2.1450388267  -0.1924306748
	    H     0.7947013285   2.1449952893  -0.1925013233
	    H     0.3670000444   1.2725287190   1.2797225458
	    H    -1.6671926686  -2.1485091255   0.1639370968
	    H    -1.2409711765  -1.2853324224  -1.3130140925
	    H    -1.2411230523   1.2855073567  -1.3129450587
	    H    -1.6671483830   2.1485065981   0.1641665973
	    H    -2.9240519244   0.0000059709  -0.0293800921
	    H    -1.8657994512  -0.0000403919   1.3812384960
	    H     2.7467952863  -0.8824701816   0.6656560726
	    H     3.1511186188   0.0041495184  -0.8012150130
	    H     2.7448159367   0.8784791237   0.6724705300
			--------------------------
			 OPTKING Finished Execution 
			--------------------------

    Structure for next step:
    Molecular point group: c1
    Full point group: C1

    Geometry (in Angstrom), charge = 0, multiplicity = 1:

    C            1.017072589800    -0.000047384268    -0.320623080913
    C            0.296084539449    -1.247482217877     0.185171275105
    C            0.296108754909     1.247452548953     0.185084199776
    C           -1.171594017978    -1.252074753054    -0.218869045412
    C           -1.171610389762     1.252111941287    -0.218818357999
    C           -1.876181471974     0.000000404248     0.285014619325
    C            2.499989874567     0.000032364668     0.073327898665
    H            0.940178877772    -0.000116774629    -1.416147487110
    H            0.367824844328    -1.272576598693     1.280146275899
    H            0.795518712943    -2.145039149165    -0.192090869691
    H            0.795577103657     2.144994983739    -0.192161518188
    H            0.367875817947     1.272528409966     1.280062356689
    H           -1.666316903068    -2.148509447975     0.164276903380
    H           -1.240095409333    -1.285332741525    -1.312674291800
    H           -1.240247285162     1.285507047685    -1.312605257990
    H           -1.666272617528     2.148506292548     0.164506403885
    H           -2.923176163782     0.000005656924    -0.029040286283
    H           -1.864923686487    -0.000040705928     1.381578307304
    H            2.747671069142    -0.882470499084     0.665995881118
    H            3.151994403294     0.004149204358    -0.800875210270
    H            2.745691719597     0.878478813141     0.672810338500

gradient() will perform analytic gradient computation.

*** tstart() called on thinkpad
*** at Sat Jul 10 13:53:48 2021

   => Loading Basis Set <=

    Name: DEF2-TZVP
    Role: ORBITAL
    Keyword: BASIS
    atoms 1-7  entry C          line   123 file /usr/share/psi4/basis/def2-tzvp.gbs 
    atoms 8-21 entry H          line    15 file /usr/share/psi4/basis/def2-tzvp.gbs 


         ---------------------------------------------------------
                                   SCF
               by Justin Turney, Rob Parrish, Andy Simmonett
                          and Daniel G. A. Smith
                              RKS Reference
                        4 Threads,   7629 MiB Core
         ---------------------------------------------------------

  ==> Geometry <==

    Molecular point group: c1
    Full point group: C1

    Geometry (in Angstrom), charge = 0, multiplicity = 1:

       Center              X                  Y                   Z               Mass       
    ------------   -----------------  -----------------  -----------------  -----------------
         C            1.017072589800    -0.000047384268    -0.320623080913    12.000000000000
         C            0.296084539449    -1.247482217877     0.185171275105    12.000000000000
         C            0.296108754909     1.247452548953     0.185084199776    12.000000000000
         C           -1.171594017978    -1.252074753054    -0.218869045412    12.000000000000
         C           -1.171610389762     1.252111941287    -0.218818357999    12.000000000000
         C           -1.876181471974     0.000000404248     0.285014619325    12.000000000000
         C            2.499989874567     0.000032364668     0.073327898665    12.000000000000
         H            0.940178877772    -0.000116774629    -1.416147487110     1.007825032230
         H            0.367824844328    -1.272576598693     1.280146275899     1.007825032230
         H            0.795518712943    -2.145039149165    -0.192090869691     1.007825032230
         H            0.795577103657     2.144994983739    -0.192161518188     1.007825032230
         H            0.367875817947     1.272528409966     1.280062356689     1.007825032230
         H           -1.666316903068    -2.148509447975     0.164276903380     1.007825032230
         H           -1.240095409333    -1.285332741525    -1.312674291800     1.007825032230
         H           -1.240247285162     1.285507047685    -1.312605257990     1.007825032230
         H           -1.666272617528     2.148506292548     0.164506403885     1.007825032230
         H           -2.923176163782     0.000005656924    -0.029040286283     1.007825032230
         H           -1.864923686487    -0.000040705928     1.381578307304     1.007825032230
         H            2.747671069142    -0.882470499084     0.665995881118     1.007825032230
         H            3.151994403294     0.004149204358    -0.800875210270     1.007825032230
         H            2.745691719597     0.878478813141     0.672810338500     1.007825032230

  Running in c1 symmetry.

  Rotational constants: A =      0.14243  B =      0.07335  C =      0.05354 [cm^-1]
  Rotational constants: A =   4270.03233  B =   2199.03496  C =   1604.97302 [MHz]
  Nuclear repulsion =  330.150868403381082

  Charge       = 0
  Multiplicity = 1
  Electrons    = 56
  Nalpha       = 28
  Nbeta        = 28

  ==> Algorithm <==

  SCF Algorithm Type is DF.
  DIIS enabled.
  MOM disabled.
  Fractional occupation disabled.
  Guess Type is READ.
  Energy threshold   = 1.00e-08
  Density threshold  = 1.00e-08
  Integral threshold = 0.00e+00

  ==> Primary Basis <==

  Basis Set: DEF2-TZVP
    Blend: DEF2-TZVP
    Number of shells: 133
    Number of basis function: 301
    Number of Cartesian functions: 336
    Spherical Harmonics?: true
    Max angular momentum: 3

  ==> DFT Potential <==

   => Composite Functional: PBE0 <= 

    PBE0 Hyb-GGA Exchange-Correlation Functional

    C. Adamo and V. Barone, J. Chem. Phys. 110, 6158 (1999)
    M. Ernzerhof and G. E. Scuseria, J. Chem. Phys. 110, 5029 (1999)

    Deriv               =              1
    GGA                 =           TRUE
    Meta                =          FALSE

    Exchange Hybrid     =           TRUE
    MP2 Hybrid          =          FALSE

   => Exchange Functionals <=

    0.7500   Perdew, Burke & Ernzerhof

   => Exact (HF) Exchange <=

    0.2500               HF 

   => Correlation Functionals <=

    1.0000   Perdew, Burke & Ernzerhof

   => Molecular Quadrature <=

    Radial Scheme          =       TREUTLER
    Pruning Scheme         =           FLAT
    Nuclear Scheme         =       TREUTLER

    BS radius alpha        =              1
    Pruning alpha          =              1
    Radial Points          =             75
    Spherical Points       =            302
    Total Points           =         472061
    Total Blocks           =           3440
    Max Points             =            256
    Max Functions          =            290

   => Loading Basis Set <=

    Name: (DEF2-TZVP AUX)
    Role: JKFIT
    Keyword: DF_BASIS_SCF
    atoms 1-7  entry C          line   203 file /usr/share/psi4/basis/def2-tzvp-jkfit.gbs 
    atoms 8-21 entry H          line    23 file /usr/share/psi4/basis/def2-tzvp-jkfit.gbs 

   => Loading Basis Set <=

    Name: DEF2-TZVP
    Role: ORBITAL
    Keyword: BASIS
    atoms 1-7  entry C          line   123 file /usr/share/psi4/basis/def2-tzvp.gbs 
    atoms 8-21 entry H          line    15 file /usr/share/psi4/basis/def2-tzvp.gbs 

  Reading orbitals from file 180, no projection.

  ==> Pre-Iterations <==

   -------------------------------------------------------
    Irrep   Nso     Nmo     Nalpha   Nbeta   Ndocc  Nsocc
   -------------------------------------------------------
     A        301     301       0       0       0       0
   -------------------------------------------------------
    Total     301     301      28      28      28       0
   -------------------------------------------------------

  ==> Integral Setup <==

  DFHelper Memory: AOs need 0.533 GiB; user supplied 2.618 GiB. Using in-core AOs.

  ==> MemDFJK: Density-Fitted J/K Matrices <==

    J tasked:                   Yes
    K tasked:                   Yes
    wK tasked:                   No
    OpenMP threads:               4
    Memory [MiB]:              2680
    Algorithm:                 Core
    Schwarz Cutoff:           1E-12
    Mask sparsity (%):       3.1942
    Fitting Condition:        1E-10

   => Auxiliary Basis Set <=

  Basis Set: (DEF2-TZVP AUX)
    Blend: DEF2-TZVP-JKFIT
    Number of shells: 259
    Number of basis function: 777
    Number of Cartesian functions: 903
    Spherical Harmonics?: true
    Max angular momentum: 4

  Cached 100.0% of DFT collocation blocks in 2.970 [GiB].

  Minimum eigenvalue in the overlap matrix is 8.8049342063E-05.
  Using Symmetric Orthogonalization.

  SCF Guess: Orbitals guess was supplied from a previous computation.

  ==> Iterations <==

                           Total Energy        Delta E     RMS |[F,P]|

   @DF-RKS iter   0:  -274.93564545965467   -2.74936e+02   1.18715e-04 
   @DF-RKS iter   1:  -274.94241556569273   -6.77011e-03   1.15776e-05 DIIS
   @DF-RKS iter   2:  -274.94242153003006   -5.96434e-06   7.15091e-06 DIIS
   @DF-RKS iter   3:  -274.94242355777402   -2.02774e-06   2.94088e-06 DIIS
   @DF-RKS iter   4:  -274.94242393947854   -3.81705e-07   3.43642e-07 DIIS
   @DF-RKS iter   5:  -274.94242394349243   -4.01388e-09   1.68399e-07 DIIS
   @DF-RKS iter   6:  -274.94242394467773   -1.18530e-09   4.07046e-08 DIIS
   @DF-RKS iter   7:  -274.94242394475248   -7.47491e-11   7.05004e-09 DIIS
  Energy and wave function converged.


  ==> Post-Iterations <==

    Orbital Energies [Eh]
    ---------------------

    Doubly Occupied:                                                      

       1A    -10.216477     2A    -10.208460     3A    -10.208242  
       4A    -10.208102     5A    -10.207487     6A    -10.207472  
       7A    -10.201106     8A     -0.860763     9A     -0.784005  
      10A     -0.760543    11A     -0.691657    12A     -0.623071  
      13A     -0.598489    14A     -0.566736    15A     -0.486879  
      16A     -0.459941    17A     -0.450061    18A     -0.444524  
      19A     -0.423876    20A     -0.395162    21A     -0.386014  
      22A     -0.377147    23A     -0.355179    24A     -0.347868  
      25A     -0.336765    26A     -0.321111    27A     -0.303356  
      28A     -0.300059  

    Virtual:                                                              

      29A      0.046479    30A      0.061170    31A      0.065710  
      32A      0.076185    33A      0.100256    34A      0.105601  
      35A      0.113279    36A      0.121797    37A      0.122504  
      38A      0.129396    39A      0.138485    40A      0.139228  
      41A      0.144326    42A      0.154457    43A      0.177704  
      44A      0.190820    45A      0.203617    46A      0.219356  
      47A      0.226269    48A      0.241508    49A      0.242621  
      50A      0.246127    51A      0.258176    52A      0.266735  
      53A      0.281176    54A      0.292133    55A      0.294594  
      56A      0.309715    57A      0.314426    58A      0.344336  
      59A      0.363136    60A      0.386192    61A      0.395596  
      62A      0.416343    63A      0.420945    64A      0.428258  
      65A      0.433538    66A      0.438677    67A      0.440477  
      68A      0.451117    69A      0.454646    70A      0.456713  
      71A      0.460059    72A      0.463335    73A      0.466991  
      74A      0.475712    75A      0.484585    76A      0.498102  
      77A      0.500329    78A      0.502396    79A      0.510260  
      80A      0.517029    81A      0.530457    82A      0.530570  
      83A      0.604603    84A      0.609113    85A      0.624380  
      86A      0.655680    87A      0.681648    88A      0.684929  
      89A      0.708666    90A      0.763873    91A      0.783510  
      92A      0.787095    93A      0.800479    94A      0.813597  
      95A      0.841783    96A      0.857336    97A      0.869006  
      98A      0.881173    99A      0.903347   100A      0.930016  
     101A      0.942292   102A      0.963851   103A      0.988256  
     104A      0.991851   105A      1.019115   106A      1.038256  
     107A      1.046124   108A      1.077566   109A      1.087530  
     110A      1.107530   111A      1.123887   112A      1.160388  
     113A      1.168428   114A      1.175773   115A      1.176846  
     116A      1.193579   117A      1.200753   118A      1.231968  
     119A      1.271247   120A      1.284851   121A      1.294388  
     122A      1.300157   123A      1.323862   124A      1.379030  
     125A      1.402264   126A      1.453091   127A      1.486771  
     128A      1.522363   129A      1.540111   130A      1.551008  
     131A      1.568293   132A      1.582389   133A      1.591776  
     134A      1.602354   135A      1.624076   136A      1.625170  
     137A      1.630104   138A      1.659314   139A      1.669914  
     140A      1.686429   141A      1.692268   142A      1.707828  
     143A      1.734176   144A      1.763876   145A      1.774561  
     146A      1.800767   147A      1.802592   148A      1.809967  
     149A      1.863360   150A      1.902138   151A      1.902840  
     152A      1.922259   153A      1.963717   154A      1.988591  
     155A      2.004188   156A      2.017268   157A      2.018673  
     158A      2.042223   159A      2.063521   160A      2.090526  
     161A      2.153383   162A      2.161594   163A      2.180032  
     164A      2.197404   165A      2.199412   166A      2.208441  
     167A      2.228839   168A      2.250026   169A      2.274170  
     170A      2.293860   171A      2.336417   172A      2.375985  
     173A      2.404724   174A      2.407636   175A      2.436841  
     176A      2.444121   177A      2.465662   178A      2.470239  
     179A      2.513666   180A      2.536689   181A      2.546210  
     182A      2.549099   183A      2.567844   184A      2.574491  
     185A      2.580340   186A      2.584298   187A      2.598739  
     188A      2.614562   189A      2.614655   190A      2.639382  
     191A      2.655060   192A      2.663506   193A      2.683213  
     194A      2.698080   195A      2.703718   196A      2.709600  
     197A      2.753686   198A      2.760196   199A      2.789230  
     200A      2.803470   201A      2.833699   202A      2.834144  
     203A      2.845177   204A      2.870899   205A      2.907419  
     206A      2.927031   207A      2.961635   208A      2.979950  
     209A      2.987218   210A      3.012043   211A      3.013144  
     212A      3.050354   213A      3.074566   214A      3.083142  
     215A      3.108032   216A      3.127700   217A      3.136880  
     218A      3.168691   219A      3.174093   220A      3.188306  
     221A      3.214276   222A      3.214629   223A      3.252620  
     224A      3.285827   225A      3.286549   226A      3.306565  
     227A      3.316049   228A      3.323239   229A      3.357022  
     230A      3.381665   231A      3.391857   232A      3.399804  
     233A      3.409281   234A      3.449053   235A      3.459575  
     236A      3.469032   237A      3.487415   238A      3.516359  
     239A      3.517322   240A      3.525465   241A      3.559258  
     242A      3.559412   243A      3.575422   244A      3.598762  
     245A      3.611824   246A      3.646954   247A      3.659698  
     248A      3.675773   249A      3.682154   250A      3.696137  
     251A      3.733771   252A      3.753245   253A      3.781842  
     254A      3.805476   255A      3.821525   256A      3.896755  
     257A      3.936164   258A      3.964352   259A      3.995942  
     260A      4.023768   261A      4.037328   262A      4.053036  
     263A      4.076889   264A      4.083428   265A      4.117739  
     266A      4.162441   267A      4.172057   268A      4.206158  
     269A      4.255492   270A      4.260825   271A      4.287928  
     272A      4.303908   273A      4.304854   274A      4.353704  
     275A      4.379102   276A      4.410487   277A      4.476520  
     278A      4.494980   279A      4.541890   280A      4.545977  
     281A      4.627216   282A      4.652639   283A      4.659067  
     284A      4.732696   285A      4.752197   286A      4.789715  
     287A      4.827761   288A      4.856488   289A      4.891504  
     290A      4.894943   291A      5.014104   292A      5.096128  
     293A      5.112474   294A      5.218468   295A     22.405772  
     296A     22.521294   297A     22.569387   298A     22.598898  
     299A     22.613425   300A     22.712362   301A     22.801026  

    Final Occupation by Irrep:
              A 
    DOCC [    28 ]

  @DF-RKS Final Energy:  -274.94242394475248

   => Energetics <=

    Nuclear Repulsion Energy =            330.1508684033810823
    One-Electron Energy =               -1023.3927266490840111
    Two-Electron Energy =                 450.9698159015790679
    DFT Exchange-Correlation Energy =     -32.6703816006285876
    Empirical Dispersion Energy =           0.0000000000000000
    VV10 Nonlocal Energy =                  0.0000000000000000
    Total Energy =                       -274.9424239447524769

Computation Completed


Properties will be evaluated at   0.000000,   0.000000,   0.000000 [a0]

Properties computed using the SCF density matrix

  Nuclear Dipole Moment: [e a0]
     X:     1.2293      Y:     0.0001      Z:     0.3317

  Electronic Dipole Moment: [e a0]
     X:    -1.2621      Y:    -0.0000      Z:    -0.3658

  Dipole Moment: [e a0]
     X:    -0.0328      Y:     0.0000      Z:    -0.0342     Total:     0.0474

  Dipole Moment: [D]
     X:    -0.0835      Y:     0.0001      Z:    -0.0868     Total:     0.1204


*** tstop() called on thinkpad at Sat Jul 10 13:54:15 2021
Module time:
	user time   =      91.05 seconds =       1.52 minutes
	system time =       0.72 seconds =       0.01 minutes
	total time  =         27 seconds =       0.45 minutes
Total time:
	user time   =     267.47 seconds =       4.46 minutes
	system time =       3.38 seconds =       0.06 minutes
	total time  =         78 seconds =       1.30 minutes

*** tstart() called on thinkpad
*** at Sat Jul 10 13:54:15 2021


         ------------------------------------------------------------
                                   SCF GRAD                          
                          Rob Parrish, Justin Turney,                
                       Andy Simmonett, and Alex Sokolov              
         ------------------------------------------------------------

  ==> Geometry <==

    Molecular point group: c1
    Full point group: C1

    Geometry (in Angstrom), charge = 0, multiplicity = 1:

       Center              X                  Y                   Z               Mass       
    ------------   -----------------  -----------------  -----------------  -----------------
         C            1.017072589800    -0.000047384268    -0.320623080913    12.000000000000
         C            0.296084539449    -1.247482217877     0.185171275105    12.000000000000
         C            0.296108754909     1.247452548953     0.185084199776    12.000000000000
         C           -1.171594017978    -1.252074753054    -0.218869045412    12.000000000000
         C           -1.171610389762     1.252111941287    -0.218818357999    12.000000000000
         C           -1.876181471974     0.000000404248     0.285014619325    12.000000000000
         C            2.499989874567     0.000032364668     0.073327898665    12.000000000000
         H            0.940178877772    -0.000116774629    -1.416147487110     1.007825032230
         H            0.367824844328    -1.272576598693     1.280146275899     1.007825032230
         H            0.795518712943    -2.145039149165    -0.192090869691     1.007825032230
         H            0.795577103657     2.144994983739    -0.192161518188     1.007825032230
         H            0.367875817947     1.272528409966     1.280062356689     1.007825032230
         H           -1.666316903068    -2.148509447975     0.164276903380     1.007825032230
         H           -1.240095409333    -1.285332741525    -1.312674291800     1.007825032230
         H           -1.240247285162     1.285507047685    -1.312605257990     1.007825032230
         H           -1.666272617528     2.148506292548     0.164506403885     1.007825032230
         H           -2.923176163782     0.000005656924    -0.029040286283     1.007825032230
         H           -1.864923686487    -0.000040705928     1.381578307304     1.007825032230
         H            2.747671069142    -0.882470499084     0.665995881118     1.007825032230
         H            3.151994403294     0.004149204358    -0.800875210270     1.007825032230
         H            2.745691719597     0.878478813141     0.672810338500     1.007825032230

  Nuclear repulsion =  330.150868403381082

  ==> Basis Set <==

  Basis Set: DEF2-TZVP
    Blend: DEF2-TZVP
    Number of shells: 133
    Number of basis function: 301
    Number of Cartesian functions: 336
    Spherical Harmonics?: true
    Max angular momentum: 3

  ==> DFJKGrad: Density-Fitted SCF Gradients <==

    Gradient:                    1
    J tasked:                  Yes
    K tasked:                  Yes
    wK tasked:                  No
    OpenMP threads:              4
    Integrals threads:           4
    Memory [MiB]:             5722
    Schwarz Cutoff:          0E+00
    Fitting Condition:       1E-10

   => Auxiliary Basis Set <=

  Basis Set: (DEF2-TZVP AUX)
    Blend: DEF2-TZVP-JKFIT
    Number of shells: 259
    Number of basis function: 777
    Number of Cartesian functions: 903
    Spherical Harmonics?: true
    Max angular momentum: 4

  ==> DFT Potential <==

   => Composite Functional: PBE0 <= 

    PBE0 Hyb-GGA Exchange-Correlation Functional

    C. Adamo and V. Barone, J. Chem. Phys. 110, 6158 (1999)
    M. Ernzerhof and G. E. Scuseria, J. Chem. Phys. 110, 5029 (1999)

    Deriv               =              1
    GGA                 =           TRUE
    Meta                =          FALSE

    Exchange Hybrid     =           TRUE
    MP2 Hybrid          =          FALSE

   => Exchange Functionals <=

    0.7500   Perdew, Burke & Ernzerhof

   => Exact (HF) Exchange <=

    0.2500               HF 

   => Correlation Functionals <=

    1.0000   Perdew, Burke & Ernzerhof

   => Molecular Quadrature <=

    Radial Scheme          =       TREUTLER
    Pruning Scheme         =           FLAT
[...]
	   12 R(4,13)         =      1.094290     0.000076     0.000044     1.094334
	   13 R(4,14)         =      1.097494     0.000036     0.000021     1.097516
	   14 R(5,6)          =      1.522797     0.000098     0.000118     1.522915
	   15 R(5,15)         =      1.097484     0.000041     0.000021     1.097505
	   16 R(5,16)         =      1.094293     0.000075     0.000045     1.094338
	   17 R(6,17)         =      1.094243     0.000080     0.000048     1.094291
	   18 R(6,18)         =      1.097413     0.000089     0.000031     1.097444
	   19 R(7,19)         =      1.093136     0.000034     0.000013     1.093149
	   20 R(7,20)         =      1.091874     0.000083     0.000025     1.091899
	   21 R(7,21)         =      1.093146     0.000034     0.000013     1.093159
	   22 B(1,2,4)        =    112.270148     0.000000    -0.000957   112.269191
	   23 B(1,2,9)        =    108.604806    -0.000001    -0.016722   108.588084
	   24 B(1,2,10)       =    109.686250    -0.000000    -0.002499   109.683751
	   25 B(1,3,5)        =    112.280249     0.000000    -0.000395   112.279854
	   26 B(1,3,11)       =    109.697579    -0.000000    -0.001784   109.695795
	   27 B(1,3,12)       =    108.587961    -0.000001    -0.017670   108.570291
	   28 B(1,7,19)       =    111.503470    -0.000001    -0.016164   111.487306
	   29 B(1,7,20)       =    112.076865     0.000000     0.015312   112.092177
	   30 B(1,7,21)       =    111.498973    -0.000001    -0.016790   111.482184
	   31 B(2,1,3)        =    109.960461    -0.000000     0.000724   109.961185
	   32 B(2,1,7)        =    112.029578    -0.000000    -0.017756   112.011822
	   33 B(2,1,8)        =    106.972423     0.000001     0.011571   106.983993
	   34 B(2,4,6)        =    111.416155    -0.000001    -0.000588   111.415567
	   35 B(2,4,13)       =    110.234643     0.000001     0.007269   110.241912
	   36 B(2,4,14)       =    109.110161    -0.000000    -0.001941   109.108219
	   37 B(3,1,7)        =    112.017941    -0.000000    -0.018300   111.999641
	   38 B(3,1,8)        =    106.985182     0.000000     0.012382   106.997563
	   39 B(3,5,6)        =    111.416383    -0.000001    -0.000508   111.415875
	   40 B(3,5,15)       =    109.114803    -0.000000    -0.001711   109.113092
	   41 B(3,5,16)       =    110.230953     0.000001     0.007077   110.238030
	   42 B(4,2,9)        =    109.424526    -0.000000     0.004464   109.428989
	   43 B(4,2,10)       =    110.340953    -0.000000     0.004012   110.344965
	   44 B(4,6,5)        =    111.174540     0.000001     0.013599   111.188138
	   45 B(4,6,17)       =    110.372329    -0.000000    -0.003415   110.368914
	   46 B(4,6,18)       =    109.144598    -0.000000    -0.001343   109.143255
	   47 B(5,3,11)       =    110.345642    -0.000000     0.004198   110.349839
	   48 B(5,3,12)       =    109.416764    -0.000000     0.004087   109.420851
	   49 B(5,6,17)       =    110.371722    -0.000000    -0.003519   110.368203
	   50 B(5,6,18)       =    109.147218    -0.000000    -0.001180   109.146038
	   51 B(6,4,13)       =    110.396289    -0.000000    -0.002007   110.394282
	   52 B(6,4,14)       =    109.123320     0.000000     0.003191   109.126511
	   53 B(6,5,15)       =    109.125171     0.000000     0.003227   109.128398
	   54 B(6,5,16)       =    110.392973    -0.000000    -0.002187   110.390787
	   55 B(7,1,8)        =    108.609015    -0.000000     0.014524   108.623539
	   56 B(9,2,10)       =    106.322136     0.000001     0.012098   106.334234
	   57 B(11,3,12)      =    106.319458     0.000001     0.011893   106.331351
	   58 B(13,4,14)      =    106.418715    -0.000000    -0.006203   106.412512
	   59 B(15,5,16)      =    106.419179    -0.000000    -0.006174   106.413005
	   60 B(17,6,18)      =    106.503815     0.000000    -0.004946   106.498869
	   61 B(19,7,20)      =    107.176033     0.000001     0.008871   107.184905
	   62 B(19,7,21)      =    107.131813     0.000001     0.001279   107.133092
	   63 B(20,7,21)      =    107.173614     0.000001     0.008723   107.182337
	   64 D(1,2,4,6)      =    -55.368237     0.000000     0.007733   -55.360503
	   65 D(1,2,4,13)     =   -178.294685     0.000000     0.005574  -178.289111
	   66 D(1,2,4,14)     =     65.183804     0.000000     0.010059    65.193862
	   67 D(1,3,5,6)      =     55.344812    -0.000000    -0.009193    55.335619
	   68 D(1,3,5,15)     =    -65.212744    -0.000000    -0.011768   -65.224512
	   69 D(1,3,5,16)     =    178.264576    -0.000000    -0.007344   178.257231
	   70 D(2,1,3,5)      =    -54.716622    -0.000000    -0.013427   -54.730049
	   71 D(2,1,3,11)     =   -177.794030    -0.000000    -0.017255  -177.811285
	   72 D(2,1,3,12)     =     66.402819    -0.000000    -0.020588    66.382231
	   73 D(2,1,7,19)     =     -1.813298     0.000000     0.024857    -1.788441
	   74 D(2,1,7,20)     =    118.339487     0.000000     0.035526   118.375013
	   75 D(2,1,7,21)     =   -121.513966     0.000000     0.045567  -121.468399
	   76 D(2,4,6,5)      =     54.582119    -0.000000    -0.021817    54.560302
	   77 D(2,4,6,17)     =    177.406706    -0.000000    -0.019293   177.387414
	   78 D(2,4,6,18)     =    -65.869567    -0.000000    -0.028046   -65.897613
	   79 D(3,1,2,4)      =     54.725318     0.000000     0.014009    54.739327
	   80 D(3,1,2,9)      =    -66.408888     0.000000     0.020413   -66.388474
	   81 D(3,1,2,10)     =    177.781520     0.000000     0.016694   177.798214
	   82 D(3,1,7,19)     =    122.301757     0.000000    -0.001663   122.300094
	   83 D(3,1,7,20)     =   -117.545458     0.000000     0.009006  -117.536452
	   84 D(3,1,7,21)     =      2.601088     0.000000     0.019047     2.620135
	   85 D(3,5,6,4)      =    -54.567983     0.000000     0.022660   -54.545324
	   86 D(3,5,6,17)     =   -177.392920     0.000000     0.020076  -177.372845
	   87 D(3,5,6,18)     =     65.882156     0.000000     0.028792    65.910948
	   88 D(4,2,1,7)      =    179.981042    -0.000000    -0.022254   179.958788
	   89 D(4,2,1,8)      =    -61.110517    -0.000000    -0.007381   -61.117898
	   90 D(4,6,5,15)     =     65.983484    -0.000000     0.022334    66.005819
	   91 D(4,6,5,16)     =   -177.394950    -0.000000     0.015502  -177.379449
	   92 D(5,3,1,7)      =   -179.979004     0.000000     0.022522  -179.956482
	   93 D(5,3,1,8)      =     61.111165     0.000000     0.007454    61.118619
	   94 D(5,6,4,13)     =    177.415992     0.000000    -0.014342   177.401650
	   95 D(5,6,4,14)     =    -65.962192     0.000000    -0.021128   -65.983321
	   96 D(6,4,2,9)      =     65.293928    -0.000000    -0.010943    65.282985
	   97 D(6,4,2,10)     =   -178.055420     0.000000     0.008722  -178.046698
	   98 D(6,5,3,11)     =    178.057110    -0.000000    -0.008729   178.048381
	   99 D(6,5,3,12)     =    -65.297362     0.000000     0.010570   -65.286792
	  100 D(7,1,2,9)      =     58.846836     0.000000    -0.015850    58.830987
	  101 D(7,1,2,10)     =    -56.962756    -0.000000    -0.019569   -56.982325
	  102 D(7,1,3,11)     =     56.943588     0.000000     0.018693    56.962281
	  103 D(7,1,3,12)     =    -58.859563    -0.000000     0.015360   -58.844202
	  104 D(8,1,2,9)      =    177.755278     0.000000    -0.000977   177.754301
	  105 D(8,1,2,10)     =     61.945685    -0.000000    -0.004696    61.940989
	  106 D(8,1,3,11)     =    -61.966243     0.000000     0.003625   -61.962617
	  107 D(8,1,3,12)     =   -177.769393    -0.000000     0.000292  -177.769101
	  108 D(8,1,7,19)     =   -119.751375     0.000000     0.011933  -119.739442
	  109 D(8,1,7,20)     =      0.401410     0.000000     0.022602     0.424012
	  110 D(8,1,7,21)     =    120.547956     0.000000     0.032643   120.580599
	  111 D(9,2,4,13)     =    -57.632520    -0.000000    -0.013102   -57.645622
	  112 D(9,2,4,14)     =   -174.154032    -0.000000    -0.008617  -174.162649
	  113 D(10,2,4,13)    =     59.018132     0.000000     0.006563    59.024694
	  114 D(10,2,4,14)    =    -57.503380     0.000000     0.011047   -57.492332
	  115 D(11,3,5,15)    =     57.499553    -0.000000    -0.011303    57.488250
	  116 D(11,3,5,16)    =    -59.023127    -0.000000    -0.006880   -59.030007
	  117 D(12,3,5,15)    =    174.145082     0.000000     0.007995   174.153077
	  118 D(12,3,5,16)    =     57.622402     0.000000     0.012419    57.634821
	  119 D(13,4,6,17)    =    -59.759421     0.000000    -0.011817   -59.771238
	  120 D(13,4,6,18)    =     56.964306     0.000000    -0.020571    56.943735
	  121 D(14,4,6,17)    =     56.862395     0.000000    -0.018604    56.843791
	  122 D(14,4,6,18)    =    173.586121     0.000000    -0.027357   173.558764
	  123 D(15,5,6,17)    =    -56.841453    -0.000000     0.019750   -56.821702
	  124 D(15,5,6,18)    =   -173.566376    -0.000000     0.028467  -173.537909
	  125 D(16,5,6,17)    =     59.780113    -0.000000     0.012918    59.793030
	  126 D(16,5,6,18)    =    -56.944811    -0.000000     0.021634   -56.923177
	  127 R(1,X)          =      1.021642     0.000059    -0.000029     1.021613
	  128 R(1,Y)          =     -0.000189    -0.000006    -0.000017    -0.000207
	  129 R(1,Z)          =     -0.316149    -0.000113    -0.000380    -0.316529
	  130 R(2,X)          =      0.297338     0.000064     0.000131     0.297469
	  131 R(2,Y)          =     -1.250619    -0.000033    -0.000048    -1.250667
	  132 R(2,Z)          =      0.177581    -0.000041    -0.000056     0.177525
	  133 R(3,X)          =      0.297458     0.000062     0.000143     0.297601
	  134 R(3,Y)          =      1.250606     0.000018     0.000052     1.250659
	  135 R(3,Z)          =      0.176889    -0.000050    -0.000133     0.176756
	  136 R(4,X)          =     -1.174437    -0.000128    -0.000049    -1.174486
	  137 R(4,Y)          =     -1.256255    -0.000149    -0.000198    -1.256453
	  138 R(4,Z)          =     -0.211412    -0.000018     0.000161    -0.211251
	  139 R(5,X)          =     -1.174400    -0.000127    -0.000042    -1.174443
	  140 R(5,Y)          =      1.256314     0.000147     0.000200     1.256514
	  141 R(5,Z)          =     -0.211804    -0.000042     0.000102    -0.211702
	  142 R(6,X)          =     -1.883298    -0.000065    -0.000047    -1.883345
	  143 R(6,Y)          =      0.000109     0.000006     0.000014     0.000122
	  144 R(6,Z)          =      0.276380    -0.000007    -0.000016     0.276364
	  145 R(7,X)          =      2.504494     0.000238    -0.000037     2.504456
	  146 R(7,Y)          =      0.000021    -0.000003    -0.000004     0.000017
	  147 R(7,Z)          =      0.079327     0.000047     0.000075     0.079401
	  148 R(8,X)          =      0.951221     0.000151     0.000006     0.951227
	  149 R(8,Y)          =     -0.000635     0.000014    -0.000060    -0.000695
	  150 R(8,Z)          =     -1.412295    -0.000231    -0.000435    -1.412730
	  151 R(9,X)          =      0.386289     0.000040     0.000402     0.386691
	  152 R(9,Y)          =     -1.298237     0.000252     0.000448    -1.297789
	  153 R(9,Z)          =      1.271546     0.000101    -0.000012     1.271534
	  154 R(10,X)         =      0.797291     0.000125     0.000218     0.797509
	  155 R(10,Y)         =     -2.144279    -0.000127    -0.000080    -2.144359
	  156 R(10,Z)         =     -0.211092    -0.000049    -0.000017    -0.211109
	  157 R(11,X)         =      0.797491     0.000133     0.000236     0.797727
	  158 R(11,Y)         =      2.144128     0.000112     0.000064     2.144192
	  159 R(11,Z)         =     -0.212000    -0.000087    -0.000136    -0.212135
	  160 R(12,X)         =      0.386492     0.000038     0.000421     0.386913
	  161 R(12,Y)         =      1.298494    -0.000241    -0.000393     1.298101
	  162 R(12,Z)         =      1.270841     0.000074    -0.000092     1.270749
	  163 R(13,X)         =     -1.666978    -0.000224    -0.000087    -1.667065
	  164 R(13,Y)         =     -2.149891    -0.000139    -0.000121    -2.150012
	  165 R(13,Z)         =      0.183920     0.000096     0.000412     0.184332
	  166 R(14,X)         =     -1.257018    -0.000160    -0.000195    -1.257213
	  167 R(14,Y)         =     -1.314331    -0.000239    -0.000540    -1.314871
	  168 R(14,Z)         =     -1.304253    -0.000048     0.000169    -1.304084
	  169 R(15,X)         =     -1.257289    -0.000161    -0.000206    -1.257495
	  170 R(15,Y)         =      1.314283     0.000217     0.000503     1.314786
	  171 R(15,Z)         =     -1.304618    -0.000077     0.000110    -1.304507
	  172 R(16,X)         =     -1.666738    -0.000214    -0.000066    -1.666804
	  173 R(16,Y)         =      2.150041     0.000149     0.000141     2.150182
	  174 R(16,Z)         =      0.183585     0.000052     0.000330     0.183915
	  175 R(17,X)         =     -2.927272    -0.000161    -0.000049    -2.927320
	  176 R(17,Y)         =      0.000077     0.000006     0.000010     0.000087
	  177 R(17,Z)         =     -0.051471     0.000032    -0.000170    -0.051642
	  178 R(18,X)         =     -1.901122     0.000028    -0.000290    -1.901412
	  179 R(18,Y)         =      0.000250     0.000020     0.000038     0.000287
	  180 R(18,Z)         =      1.373648     0.000084     0.000012     1.373660
	  181 R(19,X)         =      2.761632    -0.000019    -0.000450     2.761182
	  182 R(19,Y)         =     -0.882720    -0.000142    -0.000195    -0.882915
	  183 R(19,Z)         =      0.670593     0.000014    -0.000007     0.670585
	  184 R(20,X)         =      3.161746     0.000388     0.000461     3.162207
	  185 R(20,Y)         =      0.006780     0.000117     0.000359     0.007139
	  186 R(20,Z)         =     -0.792547     0.000058     0.000422    -0.792125
	  187 R(21,X)         =      2.758342    -0.000087    -0.000638     2.757703
	  188 R(21,Y)         =      0.876195     0.000022    -0.000164     0.876031
	  189 R(21,Z)         =      0.681696     0.000208     0.000584     0.682280
	 ---------------------------------------------------------------------------
	Successfully symmetrized geometry.

  ==> Convergence Check <==

  Measures of convergence in internal coordinates in au.
  Criteria marked as inactive (o), active & met (*), and active & unmet ( ).
  ---------------------------------------------------------------------------------------------
   Step     Total Energy     Delta E     MAX Force     RMS Force      MAX Disp      RMS Disp   
  ---------------------------------------------------------------------------------------------
    Convergence Criteria    1.00e-06 *    3.00e-04 *             o    1.20e-03 *             o
  ---------------------------------------------------------------------------------------------
     11    -274.94267874   -7.54e-07 *    4.72e-05 *    1.11e-05 o    1.21e-03      3.40e-04 o  ~
  ---------------------------------------------------------------------------------------------


  **** Optimization is complete! (in 11 steps) ****

  ==> Optimization Summary <==

  Measures of convergence in internal coordinates in au.
  --------------------------------------------------------------------------------------------------------------- ~
   Step         Total Energy             Delta E       MAX Force       RMS Force        MAX Disp        RMS Disp  ~
  --------------------------------------------------------------------------------------------------------------- ~
      1    -274.941801830359   -274.941801830359      0.00189908      0.00071554      0.02230865      0.00835040  ~
      2    -274.942423944752     -0.000622114393      0.00072908      0.00024318      0.01392019      0.00551795  ~
      3    -274.942563654443     -0.000139709691      0.00044677      0.00012824      0.00890055      0.00255187  ~
      4    -274.942601309846     -0.000037655403      0.00028896      0.00008614      0.01530942      0.00435270  ~
      5    -274.942635365272     -0.000034055426      0.00019799      0.00005331      0.00730748      0.00239239  ~
      6    -274.942648128689     -0.000012763416      0.00019171      0.00005541      0.01565447      0.00476311  ~
      7    -274.942668121596     -0.000019992907      0.00015990      0.00003565      0.00901490      0.00257778  ~
      8    -274.942673271088     -0.000005149492      0.00013854      0.00002684      0.00248624      0.00077514  ~
      9    -274.942675252533     -0.000001981445      0.00010585      0.00002064      0.00460947      0.00128748  ~
     10    -274.942677988380     -0.000002735847      0.00004805      0.00001497      0.00189746      0.00049802  ~
     11    -274.942678742430     -0.000000754050      0.00004715      0.00001108      0.00120649      0.00034024  ~
  --------------------------------------------------------------------------------------------------------------- ~

	Writing optimization data to binary file.
	Final energy is   -274.9426787424303
	Final (previous) structure:
	Cartesian Geometry (in Angstrom)
	    C     1.0216419245  -0.0001893047  -0.3161487792
	    C     0.2973378810  -1.2506189086   0.1775810939
	    C     0.2974575475   1.2506064200   0.1768888542
	    C    -1.1744365717  -1.2562548858  -0.2114123160
	    C    -1.1744003045   1.2563138446  -0.2118044939
	    C    -1.8832979544   0.0001086433   0.2763796821
	    C     2.5044935295   0.0000211444   0.0793266134
	    H     0.9512211911  -0.0006346245  -1.4122949918
	    H     0.3862894619  -1.2982365713   1.2715459249
	    H     0.7972905901  -2.1442785585  -0.2110917697
	    H     0.7974907920   2.1441281708  -0.2119996269
	    H     0.3864916794   1.2984938158   1.2708408296
	    H    -1.6669778433  -2.1498908639   0.1839200828
	    H    -1.2570179075  -1.3143309934  -1.3042533603
	    H    -1.2572891892   1.3142828167  -1.3046177348
	    H    -1.6667382460   2.1500405286   0.1835849215
	    H    -2.9272715623   0.0000773207  -0.0514713459
	    H    -1.9011221133   0.0002497318   1.3736480570
	    H     2.7616318183  -0.8827199494   0.6705925314
	    H     3.1617458457   0.0067799630  -0.7925468044
	    H     2.7583418418   0.8761945606   0.6816958235
	Saving final (previous) structure.
			--------------------------
			 OPTKING Finished Execution 
			--------------------------

    Final optimized geometry and variables:
    Molecular point group: c1
    Full point group: C1

    Geometry (in Angstrom), charge = 0, multiplicity = 1:

    C            1.021641928543    -0.000189304703    -0.316148780472
    C            0.297337882140    -1.250618913566     0.177581094560
    C            0.297457548699     1.250606424899     0.176888854932
    C           -1.174436576335    -1.256254890751    -0.211412316843
    C           -1.174400309135     1.256313849556    -0.211804494725
    C           -1.883297961806     0.000108643258     0.276379683199
    C            2.504493539362     0.000021144444     0.079326613679
    H            0.951221194825    -0.000634624533    -1.412294997357
    H            0.386289463426    -1.298236576439     1.271545929849
    H            0.797290593263    -2.144278566892    -0.211091770526
    H            0.797490795160     2.144128179216    -0.211999627725
    H            0.386491680967     1.298493820869     1.270840834599
    H           -1.666977849902    -2.149890872377     0.183920083528
    H           -1.257017912398    -1.314330998600    -1.304253365446
    H           -1.257289194172     1.314282821886    -1.304617739967
    H           -1.666738252558     2.150040537014     0.183584922249
    H           -2.927271573834     0.000077320684    -0.051471346071
    H           -1.901122120800     0.000249731760     1.373648062365
    H            2.761631829163    -0.882719952899     0.670592534058
    H            3.161745858171     0.006779963031    -0.792546807501
    H            2.758341852602     0.876194564038     0.681695826182

	Removing binary optimization data file.
	Cleaning optimization helper files.

    Psi4 stopped on: Saturday, 10 July 2021 02:00PM
    Psi4 wall time for execution: 0:07:09.08

*** Psi4 exiting successfully. Buy a developer a beer!
