
    -----------------------------------------------------------------------
          Psi4: An Open-Source Ab Initio Electronic Structure Package
                               Psi4 1.3.2 release

                         Git: Rev {} zzzzzzz 


    R. M. Parrish, L. A. Burns, D. G. A. Smith, A. C. Simmonett,
    A. E. DePrince III, E. G. Hohenstein, U. Bozkaya, A. Yu. Sokolov,
    R. Di Remigio, R. M. Richard, J. F. Gonthier, A. M. James,
    H. R. McAlexander, A. Kumar, M. Saitow, X. Wang, B. P. Pritchard,
    P. Verma, H. F. Schaefer III, K. Patkowski, R. A. King, E. F. Valeev,
    F. A. Evangelista, J. M. Turney, T. D. Crawford, and C. D. Sherrill,
    J. Chem. Theory Comput. 13(7) pp 3185--3197 (2017).
    (doi: 10.1021/acs.jctc.7b00174)


                         Additional Contributions by
    P. Kraus, H. Kruse, M. H. Lechner, M. C. Schieber, R. A. Shaw,
    A. Alenaizan, R. Galvelis, Z. L. Glick, S. Lehtola, and J. P. Misiewicz

    -----------------------------------------------------------------------


    Psi4 started on: Saturday, 10 July 2021 01:24PM

    Process ID: 1297905
    Host:       thinkpad
    PSIDATADIR: /usr/share/psi4
    Memory:     500.0 MiB
    Threads:    4
    
  ==> Input File <==

--------------------------------------------------------------------------
memory 8 gb

molecule {
0 1
 C          1.1118855036        0.0000134384       -0.5187609590
 C          0.2329596100       -1.2504061283       -0.6386264810
 C          0.2330846182        1.2505772842       -0.6383427176
 C         -0.9109040286       -1.2483990394        0.3712232338
 C         -0.9112148072        1.2484498895        0.3710538765
 C         -1.7693663058       -0.0000913318        0.1997149655
 C          1.9501015456       -0.0001546565        0.7704668160
 H          1.7993816885        0.0000494257       -1.3725765711
 H          0.8475999555       -2.1436579153       -0.5053040914
 H         -0.1889467715       -1.2871151728       -1.6464105760
 H         -0.1884376855        1.2877884148       -1.6462703483
 H          0.8478102177        2.1436738337       -0.5043735079
 H         -0.5111589374       -1.2717197944        1.3869036561
 H         -1.5208790807       -2.1442508201        0.2340955685
 H         -1.5213106065        2.1441441614        0.2334352695
 H         -0.5120256145        1.2721748753        1.3869439146
 H         -2.2164472095       -0.0002059962       -0.7974631568
 H         -2.5807994833       -0.0001065324        0.9309286431
 H          3.0129373423        0.0054268351        0.5407742013
 H          1.7402389815        0.8757607792        1.3786400641
 H          1.7482078175       -0.8818364430        1.3730086867
}

set basis def2-tzvp
optimize('pbe0')
--------------------------------------------------------------------------

  Memory set to   7.451 GiB by Python driver.
gradient() will perform analytic gradient computation.

*** tstart() called on thinkpad
*** at Sat Jul 10 13:24:59 2021

   => Loading Basis Set <=

    Name: DEF2-TZVP
    Role: ORBITAL
    Keyword: BASIS
    atoms 1-7  entry C          line   123 file /usr/share/psi4/basis/def2-tzvp.gbs 
    atoms 8-21 entry H          line    15 file /usr/share/psi4/basis/def2-tzvp.gbs 


         ---------------------------------------------------------
                                   SCF
               by Justin Turney, Rob Parrish, Andy Simmonett
                          and Daniel G. A. Smith
                              RKS Reference
                        4 Threads,   7629 MiB Core
         ---------------------------------------------------------

  ==> Geometry <==

    Molecular point group: c1
    Full point group: C1

    Geometry (in Angstrom), charge = 0, multiplicity = 1:

       Center              X                  Y                   Z               Mass       
    ------------   -----------------  -----------------  -----------------  -----------------
         C            1.111878966998     0.000013437305    -0.518769537072    12.000000000000
         C            0.232953073398    -1.250406129395    -0.638635059072    12.000000000000
         C            0.233078081598     1.250577283105    -0.638351295672    12.000000000000
         C           -0.910910565202    -1.248399040495     0.371214655728    12.000000000000
         C           -0.911221343802     1.248449888405     0.371045298428    12.000000000000
         C           -1.769372842402    -0.000091332895     0.199706387428    12.000000000000
         C            1.950095008998    -0.000154657595     0.770458237928    12.000000000000
         H            1.799375151898     0.000049424605    -1.372585149172     1.007825032230
         H            0.847593418898    -2.143657916395    -0.505312669472     1.007825032230
         H           -0.188953308102    -1.287115173895    -1.646419154072     1.007825032230
         H           -0.188444222102     1.287788413705    -1.646278926372     1.007825032230
         H            0.847803681098     2.143673832605    -0.504382085972     1.007825032230
         H           -0.511165474002    -1.271719795495     1.386895078028     1.007825032230
         H           -1.520885617302    -2.144250821195     0.234086990428     1.007825032230
         H           -1.521317143102     2.144144160305     0.233426691428     1.007825032230
         H           -0.512032151102     1.272174874205     1.386935336528     1.007825032230
         H           -2.216453746102    -0.000205997295    -0.797471734872     1.007825032230
         H           -2.580806019902    -0.000106533495     0.930920065028     1.007825032230
         H            3.012930805698     0.005426834005     0.540765623228     1.007825032230
         H            1.740232444898     0.875760778105     1.378631486028     1.007825032230
         H            1.748201280898    -0.881836444095     1.373000108628     1.007825032230

  Running in c1 symmetry.

  Rotational constants: A =      0.11797  B =      0.08532  C =      0.06536 [cm^-1]
  Rotational constants: A =   3536.51653  B =   2557.71410  C =   1959.33552 [MHz]
  Nuclear repulsion =  334.619487089324309

  Charge       = 0
  Multiplicity = 1
  Electrons    = 56
  Nalpha       = 28
  Nbeta        = 28

  ==> Algorithm <==

  SCF Algorithm Type is DF.
  DIIS enabled.
  MOM disabled.
  Fractional occupation disabled.
  Guess Type is SAD.
  Energy threshold   = 1.00e-08
  Density threshold  = 1.00e-08
  Integral threshold = 0.00e+00

  ==> Primary Basis <==

  Basis Set: DEF2-TZVP
    Blend: DEF2-TZVP
    Number of shells: 133
    Number of basis function: 301
    Number of Cartesian functions: 336
    Spherical Harmonics?: true
    Max angular momentum: 3

  ==> DFT Potential <==

   => Composite Functional: PBE0 <= 

    PBE0 Hyb-GGA Exchange-Correlation Functional

    C. Adamo and V. Barone, J. Chem. Phys. 110, 6158 (1999)
    M. Ernzerhof and G. E. Scuseria, J. Chem. Phys. 110, 5029 (1999)

    Deriv               =              1
    GGA                 =           TRUE
    Meta                =          FALSE

    Exchange Hybrid     =           TRUE
    MP2 Hybrid          =          FALSE

   => Exchange Functionals <=

    0.7500   Perdew, Burke & Ernzerhof

   => Exact (HF) Exchange <=

    0.2500               HF 

   => Correlation Functionals <=

    1.0000   Perdew, Burke & Ernzerhof

   => Molecular Quadrature <=

    Radial Scheme          =       TREUTLER
    Pruning Scheme         =           FLAT
    Nuclear Scheme         =       TREUTLER

    BS radius alpha        =              1
    Pruning alpha          =              1
    Radial Points          =             75
    Spherical Points       =            302
    Total Points           =         472047
    Total Blocks           =           3432
    Max Points             =            256
    Max Functions          =            292

   => Loading Basis Set <=

    Name: (DEF2-TZVP AUX)
    Role: JKFIT
    Keyword: DF_BASIS_SCF
    atoms 1-7  entry C          line   203 file /usr/share/psi4/basis/def2-tzvp-jkfit.gbs 
    atoms 8-21 entry H          line    23 file /usr/share/psi4/basis/def2-tzvp-jkfit.gbs 

  ==> Pre-Iterations <==

   -------------------------------------------------------
    Irrep   Nso     Nmo     Nalpha   Nbeta   Ndocc  Nsocc
   -------------------------------------------------------
     A        301     301       0       0       0       0
   -------------------------------------------------------
    Total     301     301      28      28      28       0
   -------------------------------------------------------

  ==> Integral Setup <==

  DFHelper Memory: AOs need 0.541 GiB; user supplied 2.564 GiB. Using in-core AOs.

  ==> MemDFJK: Density-Fitted J/K Matrices <==

    J tasked:                   Yes
    K tasked:                   Yes
    wK tasked:                   No
    OpenMP threads:               4
    Memory [MiB]:              2626
    Algorithm:                 Core
    Schwarz Cutoff:           1E-12
    Mask sparsity (%):       1.7925
    Fitting Condition:        1E-10

   => Auxiliary Basis Set <=

  Basis Set: (DEF2-TZVP AUX)
    Blend: DEF2-TZVP-JKFIT
    Number of shells: 259
    Number of basis function: 777
    Number of Cartesian functions: 903
    Spherical Harmonics?: true
    Max angular momentum: 4

  Cached 100.0% of DFT collocation blocks in 3.023 [GiB].

  Minimum eigenvalue in the overlap matrix is 8.2764020032E-05.
  Using Symmetric Orthogonalization.

  SCF Guess: Superposition of Atomic Densities via on-the-fly atomic UHF.

  ==> Iterations <==

                           Total Energy        Delta E     RMS |[F,P]|

   @DF-RKS iter SAD:  -274.62882207967567   -2.74629e+02   0.00000e+00 
   @DF-RKS iter   1:  -274.13351758865463    4.95304e-01   4.13725e-03 DIIS
   @DF-RKS iter   2:  -273.28563036857429    8.47887e-01   5.88701e-03 DIIS
   @DF-RKS iter   3:  -274.92577870636973   -1.64015e+00   5.73331e-04 DIIS
   @DF-RKS iter   4:  -274.93717546678010   -1.13968e-02   2.40047e-04 DIIS
   @DF-RKS iter   5:  -274.93944831996635   -2.27285e-03   6.27979e-05 DIIS
   @DF-RKS iter   6:  -274.93961033169307   -1.62012e-04   9.71017e-06 DIIS
   @DF-RKS iter   7:  -274.93961442725799   -4.09556e-06   3.39074e-06 DIIS
   @DF-RKS iter   8:  -274.93961494815278   -5.20895e-07   6.97083e-07 DIIS
   @DF-RKS iter   9:  -274.93961496821584   -2.00631e-08   1.83107e-07 DIIS
   @DF-RKS iter  10:  -274.93961496973975   -1.52392e-09   4.23410e-08 DIIS
   @DF-RKS iter  11:  -274.93961496981814   -7.83871e-11   1.19473e-08 DIIS
   @DF-RKS iter  12:  -274.93961496982359   -5.45697e-12   3.74171e-09 DIIS
  Energy and wave function converged.


  ==> Post-Iterations <==

    Orbital Energies [Eh]
    ---------------------

    Doubly Occupied:                                                      

       1A    -10.216704     2A    -10.207542     3A    -10.207429  
       4A    -10.207189     5A    -10.206903     6A    -10.206877  
       7A    -10.200507     8A     -0.860120     9A     -0.779945  
      10A     -0.759826    11A     -0.695614    12A     -0.620974  
      13A     -0.609866    14A     -0.544534    15A     -0.496879  
      16A     -0.464738    17A     -0.459445    18A     -0.439230  
      19A     -0.410187    20A     -0.403420    21A     -0.384424  
      22A     -0.367089    23A     -0.364365    24A     -0.347184  
      25A     -0.344128    26A     -0.319385    27A     -0.299201  
      28A     -0.297592  

    Virtual:                                                              

      29A      0.040684    30A      0.060896    31A      0.074487  
      32A      0.081420    33A      0.098930    34A      0.103709  
      35A      0.103990    36A      0.115733    37A      0.116328  
      38A      0.131799    39A      0.146399    40A      0.147958  
      41A      0.157961    42A      0.170169    43A      0.180509  
      44A      0.185773    45A      0.202191    46A      0.222330  
      47A      0.225314    48A      0.236638    49A      0.251990  
      50A      0.252665    51A      0.253453    52A      0.260541  
      53A      0.272822    54A      0.277250    55A      0.283381  
      56A      0.319591    57A      0.337582    58A      0.341728  
      59A      0.371578    60A      0.394630    61A      0.399143  
      62A      0.407021    63A      0.421274    64A      0.424113  
      65A      0.427839    66A      0.428127    67A      0.438557  
      68A      0.446517    69A      0.450717    70A      0.456733  
      71A      0.461207    72A      0.463492    73A      0.480118  
      74A      0.483670    75A      0.491148    76A      0.496339  
      77A      0.498414    78A      0.505687    79A      0.512596  
      80A      0.514258    81A      0.535991    82A      0.543085  
      83A      0.604066    84A      0.610520    85A      0.630930  
      86A      0.662133    87A      0.691872    88A      0.710844  
      89A      0.732450    90A      0.764541    91A      0.766410  
      92A      0.790267    93A      0.795328    94A      0.811744  
      95A      0.813221    96A      0.850080    97A      0.880297  
      98A      0.899482    99A      0.912615   100A      0.933725  
     101A      0.951156   102A      0.972062   103A      0.984725  
     104A      0.998340   105A      1.004387   106A      1.053773  
     107A      1.068976   108A      1.069277   109A      1.117138  
     110A      1.118446   111A      1.137808   112A      1.152378  
     113A      1.163568   114A      1.173373   115A      1.184905  
     116A      1.220078   117A      1.233330   118A      1.239872  
     119A      1.258155   120A      1.286575   121A      1.302546  
     122A      1.317168   123A      1.322448   124A      1.331250  
     125A      1.426756   126A      1.428780   127A      1.508333  
     128A      1.539809   129A      1.547701   130A      1.555742  
     131A      1.579727   132A      1.601893   133A      1.609936  
     134A      1.626754   135A      1.627488   136A      1.633856  
     137A      1.653106   138A      1.668477   139A      1.679896  
     140A      1.692551   141A      1.693231   142A      1.701340  
     143A      1.731167   144A      1.784260   145A      1.786847  
     146A      1.807119   147A      1.830822   148A      1.841233  
     149A      1.863724   150A      1.891340   151A      1.912010  
     152A      1.932032   153A      1.955569   154A      1.962693  
     155A      1.973800   156A      1.999488   157A      2.026186  
     158A      2.036188   159A      2.090823   160A      2.114752  
     161A      2.134912   162A      2.156788   163A      2.178738  
     164A      2.196615   165A      2.215818   166A      2.247326  
     167A      2.253064   168A      2.277979   169A      2.294155  
     170A      2.307087   171A      2.344653   172A      2.358111  
     173A      2.394433   174A      2.404329   175A      2.443850  
     176A      2.448978   177A      2.480632   178A      2.492690  
     179A      2.503960   180A      2.552120   181A      2.553114  
     182A      2.570243   183A      2.579093   184A      2.592706  
     185A      2.602810   186A      2.619517   187A      2.629690  
     188A      2.636881   189A      2.643455   190A      2.648666  
     191A      2.663288   192A      2.665102   193A      2.682643  
     194A      2.702436   195A      2.732806   196A      2.741274  
     197A      2.757382   198A      2.766712   199A      2.776191  
     200A      2.801790   201A      2.822374   202A      2.824767  
     203A      2.855904   204A      2.897448   205A      2.911684  
     206A      2.949444   207A      2.958142   208A      2.968707  
     209A      2.970862   210A      3.004091   211A      3.028345  
     212A      3.039022   213A      3.060527   214A      3.106231  
     215A      3.115203   216A      3.119627   217A      3.131833  
     218A      3.146372   219A      3.173063   220A      3.196255  
     221A      3.221831   222A      3.229214   223A      3.242713  
     224A      3.270690   225A      3.284320   226A      3.291590  
     227A      3.314705   228A      3.324905   229A      3.368703  
     230A      3.382325   231A      3.385869   232A      3.398873  
     233A      3.409044   234A      3.438439   235A      3.443610  
     236A      3.454386   237A      3.481183   238A      3.500520  
     239A      3.513774   240A      3.538362   241A      3.546048  
     242A      3.560883   243A      3.565997   244A      3.576941  
     245A      3.621074   246A      3.626377   247A      3.639504  
     248A      3.663963   249A      3.696023   250A      3.727729  
     251A      3.729975   252A      3.807324   253A      3.831332  
     254A      3.842041   255A      3.888812   256A      3.918255  
     257A      3.952551   258A      3.971096   259A      4.007849  
     260A      4.044092   261A      4.055273   262A      4.070090  
     263A      4.100612   264A      4.109801   265A      4.110849  
     266A      4.128715   267A      4.158792   268A      4.191103  
     269A      4.255294   270A      4.258432   271A      4.279417  
     272A      4.298885   273A      4.317197   274A      4.346985  
     275A      4.388001   276A      4.399669   277A      4.458028  
     278A      4.471161   279A      4.504162   280A      4.521923  
     281A      4.589885   282A      4.600098   283A      4.659285  
     284A      4.719789   285A      4.773561   286A      4.805042  
     287A      4.843962   288A      4.886120   289A      4.893796  
     290A      4.926039   291A      5.020404   292A      5.062534  
     293A      5.103838   294A      5.116381   295A     22.471486  
     296A     22.528135   297A     22.576470   298A     22.618361  
     299A     22.662477   300A     22.723277   301A     22.758797  

    Final Occupation by Irrep:
              A 
    DOCC [    28 ]

  @DF-RKS Final Energy:  -274.93961496982359

   => Energetics <=

    Nuclear Repulsion Energy =            334.6194870893243092
    One-Electron Energy =               -1032.3374366646330600
    Two-Electron Energy =                 455.4566575950981360
    DFT Exchange-Correlation Energy =     -32.6783229896130791
    Empirical Dispersion Energy =           0.0000000000000000
    VV10 Nonlocal Energy =                  0.0000000000000000
    Total Energy =                       -274.9396149698236513

Computation Completed


Properties will be evaluated at   0.000000,   0.000000,   0.000000 [a0]

Properties computed using the SCF density matrix

  Nuclear Dipole Moment: [e a0]
     X:     0.7088      Y:     0.0001      Z:     0.9302

  Electronic Dipole Moment: [e a0]
     X:    -0.7046      Y:     0.0000      Z:    -0.9603

  Dipole Moment: [e a0]
     X:     0.0042      Y:     0.0001      Z:    -0.0301     Total:     0.0304

  Dipole Moment: [D]
     X:     0.0107      Y:     0.0003      Z:    -0.0765     Total:     0.0772


*** tstop() called on thinkpad at Sat Jul 10 13:25:42 2021
Module time:
	user time   =     150.80 seconds =       2.51 minutes
	system time =       2.30 seconds =       0.04 minutes
	total time  =         43 seconds =       0.72 minutes
Total time:
	user time   =     150.80 seconds =       2.51 minutes
	system time =       2.30 seconds =       0.04 minutes
	total time  =         43 seconds =       0.72 minutes

*** tstart() called on thinkpad
*** at Sat Jul 10 13:25:42 2021


         ------------------------------------------------------------
                                   SCF GRAD                          
                          Rob Parrish, Justin Turney,                
                       Andy Simmonett, and Alex Sokolov              
         ------------------------------------------------------------

  ==> Geometry <==

    Molecular point group: c1
    Full point group: C1

    Geometry (in Angstrom), charge = 0, multiplicity = 1:

       Center              X                  Y                   Z               Mass       
    ------------   -----------------  -----------------  -----------------  -----------------
         C            1.111878966998     0.000013437305    -0.518769537072    12.000000000000
         C            0.232953073398    -1.250406129395    -0.638635059072    12.000000000000
         C            0.233078081598     1.250577283105    -0.638351295672    12.000000000000
         C           -0.910910565202    -1.248399040495     0.371214655728    12.000000000000
         C           -0.911221343802     1.248449888405     0.371045298428    12.000000000000
         C           -1.769372842402    -0.000091332895     0.199706387428    12.000000000000
         C            1.950095008998    -0.000154657595     0.770458237928    12.000000000000
         H            1.799375151898     0.000049424605    -1.372585149172     1.007825032230
         H            0.847593418898    -2.143657916395    -0.505312669472     1.007825032230
         H           -0.188953308102    -1.287115173895    -1.646419154072     1.007825032230
         H           -0.188444222102     1.287788413705    -1.646278926372     1.007825032230
         H            0.847803681098     2.143673832605    -0.504382085972     1.007825032230
         H           -0.511165474002    -1.271719795495     1.386895078028     1.007825032230
         H           -1.520885617302    -2.144250821195     0.234086990428     1.007825032230
         H           -1.521317143102     2.144144160305     0.233426691428     1.007825032230
         H           -0.512032151102     1.272174874205     1.386935336528     1.007825032230
         H           -2.216453746102    -0.000205997295    -0.797471734872     1.007825032230
         H           -2.580806019902    -0.000106533495     0.930920065028     1.007825032230
         H            3.012930805698     0.005426834005     0.540765623228     1.007825032230
         H            1.740232444898     0.875760778105     1.378631486028     1.007825032230
         H            1.748201280898    -0.881836444095     1.373000108628     1.007825032230

  Nuclear repulsion =  334.619487089324309

  ==> Basis Set <==

  Basis Set: DEF2-TZVP
    Blend: DEF2-TZVP
    Number of shells: 133
    Number of basis function: 301
    Number of Cartesian functions: 336
    Spherical Harmonics?: true
    Max angular momentum: 3

  ==> DFJKGrad: Density-Fitted SCF Gradients <==

    Gradient:                    1
    J tasked:                  Yes
    K tasked:                  Yes
    wK tasked:                  No
    OpenMP threads:              4
    Integrals threads:           4
    Memory [MiB]:             5722
    Schwarz Cutoff:          0E+00
    Fitting Condition:       1E-10

   => Auxiliary Basis Set <=

  Basis Set: (DEF2-TZVP AUX)
    Blend: DEF2-TZVP-JKFIT
    Number of shells: 259
    Number of basis function: 777
    Number of Cartesian functions: 903
    Spherical Harmonics?: true
    Max angular momentum: 4

  ==> DFT Potential <==

   => Composite Functional: PBE0 <= 

    PBE0 Hyb-GGA Exchange-Correlation Functional

    C. Adamo and V. Barone, J. Chem. Phys. 110, 6158 (1999)
    M. Ernzerhof and G. E. Scuseria, J. Chem. Phys. 110, 5029 (1999)

    Deriv               =              1
    GGA                 =           TRUE
    Meta                =          FALSE

    Exchange Hybrid     =           TRUE
    MP2 Hybrid          =          FALSE

   => Exchange Functionals <=

    0.7500   Perdew, Burke & Ernzerhof

   => Exact (HF) Exchange <=

    0.2500               HF 

   => Correlation Functionals <=

    1.0000   Perdew, Burke & Ernzerhof

   => Molecular Quadrature <=

    Radial Scheme          =       TREUTLER
    Pruning Scheme         =           FLAT
    Nuclear Scheme         =       TREUTLER

    BS radius alpha        =              1
    Pruning alpha          =              1
    Radial Points          =             75
    Spherical Points       =            302
    Total Points           =         472047
    Total Blocks           =           3432
    Max Points             =            256
    Max Functions          =            292


  -Total Gradient:
     Atom            X                  Y                   Z
    ------   -----------------  -----------------  -----------------
       1        0.001654143203     0.000015569627     0.002143982650
       2       -0.001218021779    -0.002425452954    -0.004916442210
       3       -0.001236841114     0.002413812651    -0.004908892112
       4        0.002048847143    -0.001979405727     0.008127325065
       5        0.002037996237     0.001984673313     0.008110236925
       6       -0.005323876726    -0.000006065237    -0.006987725241
       7        0.001966879998    -0.000006021326     0.005711561359
       8        0.000430560460     0.000008635189    -0.000574222929
       9       -0.000894511453     0.001628182051     0.001370165792
      10        0.000479682992     0.001411509061     0.002044473897
      11        0.000472041108    -0.001412629319     0.002040887508
      12       -0.000889386432    -0.001639871043     0.001373408918
      13       -0.000123787000     0.001346897841    -0.002620411610
      14       -0.000000901663     0.001602593984    -0.001665233673
      15        0.000000420106    -0.001602360662    -0.001662307637
      16       -0.000123227651    -0.001349741892    -0.002611576591
      17        0.002044596271     0.000005498504     0.001654750982
      18        0.002206823398    -0.000000221628     0.000504484341
      19       -0.002866721563    -0.000030501622    -0.000508433208
      20       -0.000312264300    -0.002122805426    -0.003348576766
      21       -0.000353988573     0.002156946540    -0.003321598554


*** tstop() called on thinkpad at Sat Jul 10 13:25:58 2021
Module time:
	user time   =      56.48 seconds =       0.94 minutes
	system time =       0.63 seconds =       0.01 minutes
	total time  =         16 seconds =       0.27 minutes
Total time:
	user time   =     207.28 seconds =       3.45 minutes
	system time =       2.93 seconds =       0.05 minutes
	total time  =         59 seconds =       0.98 minutes

			-----------------------------------------
			 OPTKING 2.0: for geometry optimizations 
			  - R.A. King,  Bethel University        
			-----------------------------------------

	Internal coordinates to be generated automatically.
	Detected frag 1 with atoms:  1 2 3 4 5 6 7 8 9 10 11 12 13 14 15 16 17 18 19 20
	 21
	---Fragment 1 Bond Connectivity---
	 1 : 2 3 7 8
	 2 : 1 4 9 10
	 3 : 1 5 11 12
	 4 : 2 6 13 14
	 5 : 3 6 15 16
	 6 : 4 5 17 18
	 7 : 1 19 20 21
	 8 : 1
	 9 : 2
	 10 : 2
	 11 : 3
	 12 : 3
	 13 : 4
	 14 : 4
	 15 : 5
	 16 : 5
	 17 : 6
	 18 : 6
	 19 : 7
	 20 : 7
	 21 : 7

	---Fragment 1 Geometry and Gradient---
	 C           2.1011467323        0.0000253928       -0.9803323473
	 C           0.4402175088       -2.3629251302       -1.2068453558
	 C           0.4404537401        2.3632485638       -1.2063091207
	 C          -1.7213714930       -2.3591322818        0.7014940331
	 C          -1.7219587795        2.3592283704        0.7011739942
	 C          -3.3436300860       -0.0001725942        0.3773903777
	 C           3.6851454856       -0.0002922605        1.4559550608
	 H           3.4003262340        0.0000933990       -2.5938100158
	 H           1.6017194275       -4.0509263687       -0.9549025530
	 H          -0.3570700028       -2.4322951706       -3.1112812889
	 H          -0.3561079697        2.4335674094       -3.1110162970
	 H           1.6021167654        4.0509564459       -0.9531440051
	 H          -0.9659627507       -2.4032021218        2.6208518622
	 H          -2.8740572848       -4.0520467963        0.4423603014
	 H          -2.8748727504        4.0518452365        0.4411125172
	 H          -0.9676005330        2.4040620959        2.6209279398
	 H          -4.1884905499       -0.0003892785       -1.5070031717
	 H          -4.8770165605       -0.0002013191        1.7591839676
	 H           5.6936140577        0.0102552300        1.0218989260
	 H           3.2885627155        1.6549480220        2.6052359365
	 H           3.3036216331       -1.6664293668        2.5945941755
	             0.0016541432        0.0000155696        0.0021439827
	            -0.0012180218       -0.0024254530       -0.0049164422
	            -0.0012368411        0.0024138127       -0.0049088921
	             0.0020488471       -0.0019794057        0.0081273251
	             0.0020379962        0.0019846733        0.0081102369
	            -0.0053238767       -0.0000060652       -0.0069877252
	             0.0019668800       -0.0000060213        0.0057115614
	             0.0004305605        0.0000086352       -0.0005742229
	            -0.0008945115        0.0016281821        0.0013701658
	             0.0004796830        0.0014115091        0.0020444739
	             0.0004720411       -0.0014126293        0.0020408875
	            -0.0008893864       -0.0016398710        0.0013734089
	            -0.0001237870        0.0013468978       -0.0026204116
	            -0.0000009017        0.0016025940       -0.0016652337
	             0.0000004201       -0.0016023607       -0.0016623076
	            -0.0001232277       -0.0013497419       -0.0026115766
	             0.0020445963        0.0000054985        0.0016547510
	             0.0022068234       -0.0000002216        0.0005044843
	            -0.0028667216       -0.0000305016       -0.0005084332
	            -0.0003122643       -0.0021228054       -0.0033485768
	            -0.0003539886        0.0021569465       -0.0033215986

	Previous optimization step data not found.  Starting new optimization.

	---Fragment 1 Intrafragment Coordinates---
	 - Coordinate -           - BOHR/RAD -       - ANG/DEG -
	 R(1,2)           =         2.897159	       1.533110
	 R(1,3)           =         2.897204	       1.533134
	 R(1,7)           =         2.905951	       1.537763
	 R(1,8)           =         2.071516	       1.096199
	 R(2,4)           =         2.883442	       1.525852
	 R(2,9)           =         2.064439	       1.092454
	 R(2,10)          =         2.065758	       1.093152
	 R(3,5)           =         2.883494	       1.525879
	 R(3,11)          =         2.065760	       1.093153
	 R(3,12)          =         2.064440	       1.092454
	 R(4,6)           =         2.881225	       1.524679
	 R(4,13)          =         2.063133	       1.091763
	 R(4,14)          =         2.064411	       1.092439
	 R(5,6)           =         2.881220	       1.524676
	 R(5,15)          =         2.064411	       1.092439
	 R(5,16)          =         2.063134	       1.091763
	 R(6,17)          =         2.065122	       1.092815
	 R(6,18)          =         2.064129	       1.092290
	 R(7,19)          =         2.054863	       1.087387
	 R(7,20)          =         2.053764	       1.086805
	 R(7,21)          =         2.053795	       1.086821
	 B(1,2,4)         =         1.957305	     112.145322
	 B(1,2,9)         =         1.912186	     109.560182
	 B(1,2,10)        =         1.897300	     108.707295
	 B(1,3,5)         =         1.957490	     112.155915
	 B(1,3,11)        =         1.897278	     108.706038
	 B(1,3,12)        =         1.912115	     109.556128
	 B(1,7,19)        =         1.934445	     110.835538
	 B(1,7,20)        =         1.943151	     111.334354
	 B(1,7,21)        =         1.942962	     111.323524
	 B(2,1,3)         =         1.907705	     109.303427
	 B(2,1,7)         =         1.958384	     112.207118
	 B(2,1,8)         =         1.874106	     107.378350
	 B(2,4,6)         =         1.927000	     110.408983
	 B(2,4,13)        =         1.918983	     109.949614
	 B(2,4,14)        =         1.911790	     109.537523
	 B(3,1,7)         =         1.958354	     112.205436
	 B(3,1,8)         =         1.874142	     107.380440
	 B(3,5,6)         =         1.927186	     110.419623
	 B(3,5,15)        =         1.911697	     109.532170
	 B(3,5,16)        =         1.919110	     109.956907
	 B(4,2,9)         =         1.919926	     110.003678
	 B(4,2,10)        =         1.897427	     108.714582
	 B(4,6,5)         =         1.918678	     109.932161
	 B(4,6,17)        =         1.910179	     109.445175
	 B(4,6,18)        =         1.920859	     110.057100
	 B(5,3,11)        =         1.897389	     108.712381
	 B(5,3,12)        =         1.919843	     109.998917
	 B(5,6,17)        =         1.910166	     109.444427
	 B(5,6,18)        =         1.920802	     110.053828
	 B(6,4,13)        =         1.905294	     109.165296
	 B(6,4,14)        =         1.920798	     110.053613
	 B(6,5,15)        =         1.920823	     110.055028
	 B(6,5,16)        =         1.905150	     109.157046
	 B(7,1,8)         =         1.887192	     108.128148
	 B(9,2,10)        =         1.877794	     107.589667
	 B(11,3,12)       =         1.877818	     107.591066
	 B(13,4,14)       =         1.879372	     107.680071
	 B(15,5,16)       =         1.879265	     107.673925
	 B(17,6,18)       =         1.882762	     107.874339
	 B(19,7,20)       =         1.878436	     107.626431
	 B(19,7,21)       =         1.878472	     107.628545
	 B(20,7,21)       =         1.883585	     107.921448
	 D(1,2,4,6)       =         1.001910	      57.405229
	 D(1,2,4,13)      =        -1.101397	     -63.105376
	 D(1,2,4,14)      =         3.119852	     178.754333
	 D(1,3,5,6)       =        -1.001114	     -57.359580
	 D(1,3,5,15)      =        -3.119144	    -178.713790
	 D(1,3,5,16)      =         1.102215	      63.152285
	 D(2,1,3,5)       =         0.956217	      54.787227
	 D(2,1,3,11)      =        -1.142327	     -65.450517
	 D(2,1,3,12)      =         3.093320	     177.234205
	 D(2,1,7,19)      =         2.069154	     118.553792
	 D(2,1,7,20)      =        -2.123701	    -121.679093
	 D(2,1,7,21)      =        -0.021098	      -1.208822
	 D(2,4,6,5)       =        -1.014346	     -58.117751
	 D(2,4,6,17)      =         1.084150	      62.117240
	 D(2,4,6,18)      =        -3.132811	    -179.496875
	 D(3,1,2,4)       =        -0.956614	     -54.809965
	 D(3,1,2,9)       =        -3.093748	    -177.258688
	 D(3,1,2,10)      =         1.141877	      65.424705
	 D(3,1,7,19)      =        -2.058112	    -117.921112
	 D(3,1,7,20)      =         0.032219	       1.846003
	 D(3,1,7,21)      =         2.134822	     122.316274
	 D(3,5,6,4)       =         1.013953	      58.095243
	 D(3,5,6,17)      =        -1.084551	     -62.140202
	 D(3,5,6,18)      =         3.132453	     179.476326
	 D(4,2,1,7)       =         1.227415	      70.325679
	 D(4,2,1,8)       =        -2.984421	    -170.994749
	 D(4,6,5,15)      =         3.126561	     179.138724
	 D(4,6,5,16)      =        -1.097711	     -62.894213
	 D(5,3,1,7)       =        -1.227829	     -70.349392
	 D(5,3,1,8)       =         2.984001	     170.970681
	 D(5,6,4,13)      =         1.097136	      62.861284
	 D(5,6,4,14)      =        -3.126933	    -179.160078
	 D(6,4,2,9)       =         3.134644	     179.601851
	 D(6,4,2,10)      =        -1.096507	     -62.825206
	 D(6,5,3,11)      =         1.097367	      62.874478
	 D(6,5,3,12)      =        -3.133824	    -179.554906
	 D(7,1,2,9)       =        -0.909719	     -52.123044
	 D(7,1,2,10)      =        -2.957280	    -169.439652
	 D(7,1,3,11)      =         2.956812	     169.412864
	 D(7,1,3,12)      =         0.909274	      52.097586
	 D(8,1,2,9)       =         1.161631	      66.556528
	 D(8,1,2,10)      =        -0.885931	     -50.760080
	 D(8,1,3,11)      =         0.885457	      50.732937
	 D(8,1,3,12)      =        -1.162081	     -66.582341
	 D(8,1,7,19)      =         0.005535	       0.317130
	 D(8,1,7,20)      =         2.095865	     120.084245
	 D(8,1,7,21)      =        -2.084717	    -119.445484
	 D(9,2,4,13)      =         1.031337	      59.091246
	 D(9,2,4,14)      =        -1.030600	     -59.049044
	 D(10,2,4,13)     =         3.083372	     176.664189
	 D(10,2,4,14)     =         1.021435	      58.523899
	 D(11,3,5,15)     =        -1.020664	     -58.479732
	 D(11,3,5,16)     =        -3.082490	    -176.613657
	 D(12,3,5,15)     =         1.031330	      59.090885
	 D(12,3,5,16)     =        -1.030495	     -59.043040
	 D(13,4,6,17)     =        -3.087552	    -176.903724
	 D(13,4,6,18)     =        -1.021329	     -58.517840
	 D(14,4,6,17)     =        -1.028437	     -58.925087
	 D(14,4,6,18)     =         1.037787	      59.460798
	 D(15,5,6,17)     =         1.028056	      58.903279
	 D(15,5,6,18)     =        -1.038125	     -59.480194
	 D(16,5,6,17)     =         3.086970	     176.870342
	 D(16,5,6,18)     =         1.020788	      58.486869
	 R(6,7)           =         7.111047	       3.763004

	Current energy   :      -274.9396149698

	Generating empirical Hessian (Schlegel '84) for each fragment.
	Taking RFO optimization step.
	Going to follow RFO solution 1.
	Using RFO vector 1.
	Norm of target step-size    0.22428
	Projected energy change by RFO approximation:        -0.0001949710

	Back-transformation to cartesian coordinates...
	Could not converge backtransformation.
	Using first guess instead.

	--- Internal Coordinate Step in ANG or DEG, aJ/ANG or AJ/DEG ---
	 ---------------------------------------------------------------------------
	   Coordinate                Previous        Force       Change         New 
	   ----------                --------       ------       ------       ------
	    1 R(1,2)          =      1.533110     0.001832    -0.000331     1.532779
	    2 R(1,3)          =      1.533134     0.001871    -0.000323     1.532811
	    3 R(1,7)          =      1.537763     0.013762     0.003539     1.541302
	    4 R(1,8)          =      1.096199    -0.005890    -0.001098     1.095101
	    5 R(2,4)          =      1.525852    -0.000802     0.000211     1.526063
	    6 R(2,9)          =      1.092454     0.013729     0.002552     1.095006
	    7 R(2,10)         =      1.093152     0.017467     0.003377     1.096529
	    8 R(3,5)          =      1.525879    -0.000822     0.000205     1.526084
	    9 R(3,11)         =      1.093153     0.017421     0.003368     1.096521
	   10 R(3,12)         =      1.092454     0.013772     0.002561     1.095015
	   11 R(4,6)          =      1.524679     0.000051     0.001443     1.526122
	   12 R(4,13)         =      1.091763     0.020692     0.004295     1.096058
	   13 R(4,14)         =      1.092439     0.009100     0.001730     1.094169
	   14 R(5,6)          =      1.524676     0.000085     0.001451     1.526127
	   15 R(5,15)         =      1.092439     0.009099     0.001731     1.094171
	   16 R(5,16)         =      1.091763     0.020631     0.004286     1.096050
	   17 R(6,17)         =      1.092815     0.019325     0.004032     1.096847
	   18 R(6,18)         =      1.092290     0.010728     0.002038     1.094328
	   19 R(7,19)         =      1.087387     0.022219     0.004069     1.091455
	   20 R(7,20)         =      1.086805     0.029011     0.005429     1.092233
	   21 R(7,21)         =      1.086821     0.029021     0.005449     1.092270
	   22 B(1,2,4)        =    112.145322    -0.000001     0.448716   112.594038
	   23 B(1,2,9)        =    109.560182     0.000012     0.109477   109.669659
	   24 B(1,2,10)       =    108.707295     0.000014     0.082284   108.789579
	   25 B(1,3,5)        =    112.155915    -0.000001     0.447706   112.603621
	   26 B(1,3,11)       =    108.706038     0.000014     0.079843   108.785881
	   27 B(1,3,12)       =    109.556128     0.000013     0.115964   109.672092
	   28 B(1,7,19)       =    110.835538     0.000059     0.275827   111.111365
	   29 B(1,7,20)       =    111.334354     0.000145     0.669146   112.003501
	   30 B(1,7,21)       =    111.323524     0.000145     0.673149   111.996673
	   31 B(2,1,3)        =    109.303427     0.000030     0.426127   109.729554
	   32 B(2,1,7)        =    112.207118    -0.000001     0.206442   112.413560
	   33 B(2,1,8)        =    107.378350    -0.000013    -0.277038   107.101312
	   34 B(2,4,6)        =    110.408983     0.000018     0.821991   111.230973
	   35 B(2,4,13)       =    109.949614    -0.000006    -0.228097   109.721517
	   36 B(2,4,14)       =    109.537523     0.000025     0.299555   109.837077
	   37 B(3,1,7)        =    112.205436    -0.000001     0.202523   112.407959
	   38 B(3,1,8)        =    107.380440    -0.000014    -0.282979   107.097461
	   39 B(3,5,6)        =    110.419623     0.000018     0.821798   111.241421
	   40 B(3,5,15)       =    109.532170     0.000025     0.298231   109.830401
	   41 B(3,5,16)       =    109.956907    -0.000007    -0.228983   109.727924
	   42 B(4,2,9)        =    110.003678     0.000042     0.409355   110.413033
	   43 B(4,2,10)       =    108.714582    -0.000012    -0.199046   108.515536
	   44 B(4,6,5)        =    109.932161     0.000060     1.138386   111.070548
	   45 B(4,6,17)       =    109.445175    -0.000032    -0.459332   108.985843
	   46 B(4,6,18)       =    110.057100     0.000027     0.387530   110.444631
	   47 B(5,3,11)       =    108.712381    -0.000011    -0.198416   108.513965
	   48 B(5,3,12)       =    109.998917     0.000041     0.408609   110.407526
	   49 B(5,6,17)       =    109.444427    -0.000032    -0.454584   108.989843
	   50 B(5,6,18)       =    110.053828     0.000027     0.386998   110.440827
	   51 B(6,4,13)       =    109.165296    -0.000024    -0.282520   108.882776
	   52 B(6,4,14)       =    110.053613     0.000056     0.486075   110.539689
	   53 B(6,5,15)       =    110.055028     0.000056     0.485231   110.540259
	   54 B(6,5,16)       =    109.157046    -0.000024    -0.280155   108.876891
	   55 B(7,1,8)        =    108.128148    -0.000003    -0.339105   107.789043
	   56 B(9,2,10)       =    107.589667    -0.000059    -0.926946   106.662721
	   57 B(11,3,12)      =    107.591066    -0.000059    -0.930245   106.660821
	   58 B(13,4,14)      =    107.680071    -0.000070    -1.171171   106.508900
	   59 B(15,5,16)      =    107.673925    -0.000070    -1.170511   106.503413
	   60 B(17,6,18)      =    107.874339    -0.000053    -1.082690   106.791649
	   61 B(19,7,20)      =    107.626431    -0.000107    -0.491610   107.134821
	   62 B(19,7,21)      =    107.628545    -0.000106    -0.491309   107.137236
	   63 B(20,7,21)      =    107.921448    -0.000156    -0.748053   107.173395
	   64 D(1,2,4,6)      =     57.405229    -0.000016    -1.919250    55.485979
	   65 D(1,2,4,13)     =    -63.105376    -0.000011    -1.945914   -65.051291
	   66 D(1,2,4,14)     =    178.754333     0.000007    -0.564365   178.189968
	   67 D(1,3,5,6)      =    -57.359580     0.000016     1.919065   -55.440515
	   68 D(1,3,5,15)     =   -178.713790    -0.000007     0.566106  -178.147684
	   69 D(1,3,5,16)     =     63.152285     0.000011     1.948091    65.100376
	   70 D(2,1,3,5)      =     54.787227    -0.000003    -0.646000    54.141227
	   71 D(2,1,3,11)     =    -65.450517    -0.000001    -0.734810   -66.185327
	   72 D(2,1,3,12)     =    177.234205     0.000011     0.271318   177.505523
	   73 D(2,1,7,19)     =    118.553792    -0.000004    -0.260653   118.293139
	   74 D(2,1,7,20)     =   -121.679093    -0.000004    -0.249185  -121.928277
	   75 D(2,1,7,21)     =     -1.208822    -0.000004    -0.275081    -1.483903
	   76 D(2,4,6,5)      =    -58.117751     0.000019     3.000069   -55.117682
	   77 D(2,4,6,17)     =     62.117240     0.000014     2.853328    64.970569
	   78 D(2,4,6,18)     =   -179.496875    -0.000002     1.487796  -178.009079
	   79 D(3,1,2,4)      =    -54.809965     0.000003     0.645933   -54.164031
	   80 D(3,1,2,9)      =   -177.258688    -0.000011    -0.268235  -177.526923
	   81 D(3,1,2,10)     =     65.424705     0.000001     0.736201    66.160906
	   82 D(3,1,7,19)     =   -117.921112     0.000005     0.620512  -117.300599
	   83 D(3,1,7,20)     =      1.846003     0.000005     0.631981     2.477984
	   84 D(3,1,7,21)     =    122.316274     0.000004     0.606084   122.922359
	   85 D(3,5,6,4)      =     58.095243    -0.000019    -2.999551    55.095693
	   86 D(3,5,6,17)     =    -62.140202    -0.000014    -2.849981   -64.990183
	   87 D(3,5,6,18)     =    179.476326     0.000002    -1.487043   177.989282
	   88 D(4,2,1,7)      =     70.325679     0.000007     1.382747    71.708425
	   89 D(4,2,1,8)      =   -170.994749     0.000005     0.910423  -170.084326
	   90 D(4,6,5,15)     =    179.138724    -0.000001    -1.745470   177.393253
	   91 D(4,6,5,16)     =    -62.894213    -0.000016    -3.051184   -65.945397
	   92 D(5,3,1,7)      =    -70.349392    -0.000008    -1.385032   -71.734424
	   93 D(5,3,1,8)      =    170.970681    -0.000005    -0.906722   170.063959
	   94 D(5,6,4,13)     =     62.861284     0.000016     3.051409    65.912693
	   95 D(5,6,4,14)     =   -179.160078     0.000001     1.743918  -177.416161
	   96 D(6,4,2,9)      =    179.601851    -0.000005    -1.168087   178.433764
	   97 D(6,4,2,10)     =    -62.825206    -0.000018    -2.171401   -64.996607
	   98 D(6,5,3,11)     =     62.874478     0.000018     2.167956    65.042433
	   99 D(6,5,3,12)     =   -179.554906     0.000005     1.160675  -178.394230
	  100 D(7,1,2,9)      =    -52.123044    -0.000007     0.468578   -51.654466
	  101 D(7,1,2,10)     =   -169.439652     0.000006     1.473014  -167.966638
	  102 D(7,1,3,11)     =    169.412864    -0.000006    -1.473842   167.939022
	  103 D(7,1,3,12)     =     52.097586     0.000007    -0.467714    51.629872
	  104 D(8,1,2,9)      =     66.556528    -0.000010    -0.003745    66.552783
	  105 D(8,1,2,10)     =    -50.760080     0.000003     1.000691   -49.759389
	  106 D(8,1,3,11)     =     50.732937    -0.000003    -0.995532    49.737405
	  107 D(8,1,3,12)     =    -66.582341     0.000010     0.010596   -66.571745
	  108 D(8,1,7,19)     =      0.317130     0.000000     0.175151     0.492282
	  109 D(8,1,7,20)     =    120.084245     0.000000     0.186620   120.270865
	  110 D(8,1,7,21)     =   -119.445484     0.000000     0.160723  -119.284761
	  111 D(9,2,4,13)     =     59.091246    -0.000000    -1.194752    57.896494
	  112 D(9,2,4,14)     =    -59.049044     0.000017     0.186797   -58.862247
	  113 D(10,2,4,13)    =    176.664189    -0.000013    -2.198066   174.466124
	  114 D(10,2,4,14)    =     58.523899     0.000004    -0.816517    57.707382
	  115 D(11,3,5,15)    =    -58.479732    -0.000004     0.814996   -57.664735
	  116 D(11,3,5,16)    =   -176.613657     0.000013     2.196982  -174.416675
	  117 D(12,3,5,15)    =     59.090885    -0.000017    -0.192284    58.898601
	  118 D(12,3,5,16)    =    -59.043040     0.000000     1.189701   -57.853339
	  119 D(13,4,6,17)    =   -176.903724     0.000011     2.904668  -173.999056
	  120 D(13,4,6,18)    =    -58.517840    -0.000005     1.539136   -56.978704
	  121 D(14,4,6,17)    =    -58.925087    -0.000004     1.597176   -57.327910
	  122 D(14,4,6,18)    =     59.460798    -0.000020     0.231644    59.692442
	  123 D(15,5,6,17)    =     58.903279     0.000004    -1.595901    57.307378
	  124 D(15,5,6,18)    =    -59.480194     0.000020    -0.232963   -59.713157
	  125 D(16,5,6,17)    =    176.870342    -0.000011    -2.901614   173.968728
	  126 D(16,5,6,18)    =     58.486869     0.000005    -1.538677    56.948193
	  127 R(6,7)          =      3.763004     0.004926     0.015937     3.778941
	 ---------------------------------------------------------------------------
	Successfully symmetrized geometry.

  ==> Convergence Check <==

  Measures of convergence in internal coordinates in au.
  Criteria marked as inactive (o), active & met (*), and active & unmet ( ).
  --------------------------------------------------------------------------------------------- ~
   Step     Total Energy     Delta E     MAX Force     RMS Force      MAX Disp      RMS Disp    ~
  --------------------------------------------------------------------------------------------- ~
    Convergence Criteria    1.00e-06 *    3.00e-04 *             o    1.20e-03 *             o  ~
  --------------------------------------------------------------------------------------------- ~
      1    -274.93961497   -2.75e+02      3.52e-03      9.55e-04 o    5.33e-02      2.00e-02 o  ~
  ---------------------------------------------------------------------------------------------

	Writing optimization data to binary file.
	Structure for next step:
	Cartesian Geometry (in Angstrom)
	    C     1.1109105811  -0.0001820263  -0.5142684134
	    C     0.2369398736  -1.2535293288  -0.6355413739
	    C     0.2373523433   1.2534981466  -0.6354782021
	    C    -0.9224605804  -1.2581112551   0.3567474402
	    C    -0.9224624461   1.2583907959   0.3563572621
	    C    -1.7746994336   0.0001144683   0.2167287821
	    C     1.9635633321  -0.0002770198   0.7697073545
	    H     1.7944790992  -0.0002340400  -1.3698270548
	    H     0.8550245831  -2.1479187725  -0.5048609338
	    H    -0.1737593407  -1.3008020961  -1.6511536410
	    H    -0.1729414022   1.3011377167  -1.6512281982
	    H     0.8556455878   2.1476929366  -0.5043764510
	    H    -0.5332948432  -1.3108886325   1.3800299728
	    H    -1.5333748139  -2.1538851677   0.2098474229
	    H    -1.5332905991   2.1541136126   0.2087792344
	    H    -0.5338313617   1.3116965526   1.3798069529
	    H    -2.2517250228  -0.0000836314  -0.7709552667
	    H    -2.5806061678   0.0002691912   0.9570449420
	    H     3.0292165977   0.0083760274   0.5339465639
	    H     1.7647732501   0.8743331298   1.3930158293
	    H     1.7771202420  -0.8835955233   1.3845581213
			--------------------------
			 OPTKING Finished Execution 
			--------------------------

    Structure for next step:
    Molecular point group: c1
    Full point group: C1

    Geometry (in Angstrom), charge = 0, multiplicity = 1:

    C            1.111734829817    -0.000172428140    -0.513997745345
    C            0.237764118842    -1.253519735567    -0.635270706313
    C            0.238176588601     1.253507749744    -0.635207534487
    C           -0.921636339676    -1.258101661812     0.357018111674
    C           -0.921638205386     1.258400398985     0.356627933551
    C           -1.773875196224     0.000124066490     0.216999453032
    C            1.964387584142    -0.000267421600     0.769978027602
    H            1.795303350641    -0.000224441860    -1.369556390134
    H            0.855848830828    -2.147909182729    -0.504590265735
    H           -0.172935097022    -1.300792503024    -1.650882977444
    H           -0.172117158519     1.301147319975    -1.650957534596
    H            0.856469835512     2.147702543222    -0.504105782860
    H           -0.532470600963    -1.310879039494     1.380300648329
    H           -1.532550575616    -2.153875577957     0.210118093845
    H           -1.532466360790     2.154123219215     0.209049905346
    H           -0.533007119450     1.311706155970     1.380077628426
    H           -2.250900787261    -0.000074033265    -0.770684599685
    H           -2.579781933553     0.000278789413     0.957315615856
    H            3.030040853905     0.008385625597     0.534217236046
    H            1.765597501360     0.874342731399     1.393286504901
    H            1.777944493361    -0.883585928603     1.384828796875

gradient() will perform analytic gradient computation.

*** tstart() called on thinkpad
*** at Sat Jul 10 13:25:58 2021

   => Loading Basis Set <=

    Name: DEF2-TZVP
    Role: ORBITAL
    Keyword: BASIS
    atoms 1-7  entry C          line   123 file /usr/share/psi4/basis/def2-tzvp.gbs 
    atoms 8-21 entry H          line    15 file /usr/share/psi4/basis/def2-tzvp.gbs 


         ---------------------------------------------------------
                                   SCF
               by Justin Turney, Rob Parrish, Andy Simmonett
                          and Daniel G. A. Smith
                              RKS Reference
                        4 Threads,   7629 MiB Core
         ---------------------------------------------------------

  ==> Geometry <==

    Molecular point group: c1
    Full point group: C1

    Geometry (in Angstrom), charge = 0, multiplicity = 1:

       Center              X                  Y                   Z               Mass       
    ------------   -----------------  -----------------  -----------------  -----------------
         C            1.111734829817    -0.000172428140    -0.513997745345    12.000000000000
         C            0.237764118842    -1.253519735567    -0.635270706313    12.000000000000
         C            0.238176588601     1.253507749744    -0.635207534487    12.000000000000
         C           -0.921636339676    -1.258101661812     0.357018111674    12.000000000000
         C           -0.921638205386     1.258400398985     0.356627933551    12.000000000000
         C           -1.773875196224     0.000124066490     0.216999453032    12.000000000000
         C            1.964387584142    -0.000267421600     0.769978027602    12.000000000000
         H            1.795303350641    -0.000224441860    -1.369556390134     1.007825032230
         H            0.855848830828    -2.147909182729    -0.504590265735     1.007825032230
         H           -0.172935097022    -1.300792503024    -1.650882977444     1.007825032230
         H           -0.172117158519     1.301147319975    -1.650957534596     1.007825032230
         H            0.856469835512     2.147702543222    -0.504105782860     1.007825032230
         H           -0.532470600963    -1.310879039494     1.380300648329     1.007825032230
         H           -1.532550575616    -2.153875577957     0.210118093845     1.007825032230
         H           -1.532466360790     2.154123219215     0.209049905346     1.007825032230
         H           -0.533007119450     1.311706155970     1.380077628426     1.007825032230
         H           -2.250900787261    -0.000074033265    -0.770684599685     1.007825032230
         H           -2.579781933553     0.000278789413     0.957315615856     1.007825032230
         H            3.030040853905     0.008385625597     0.534217236046     1.007825032230
         H            1.765597501360     0.874342731399     1.393286504901     1.007825032230
         H            1.777944493361    -0.883585928603     1.384828796875     1.007825032230

  Running in c1 symmetry.

  Rotational constants: A =      0.11725  B =      0.08461  C =      0.06458 [cm^-1]
  Rotational constants: A =   3515.00856  B =   2536.50688  C =   1935.94269 [MHz]
  Nuclear repulsion =  333.483878213323976

  Charge       = 0
  Multiplicity = 1
  Electrons    = 56
  Nalpha       = 28
  Nbeta        = 28

  ==> Algorithm <==

  SCF Algorithm Type is DF.
  DIIS enabled.
  MOM disabled.
  Fractional occupation disabled.
  Guess Type is READ.
  Energy threshold   = 1.00e-08
  Density threshold  = 1.00e-08
  Integral threshold = 0.00e+00

  ==> Primary Basis <==

  Basis Set: DEF2-TZVP
    Blend: DEF2-TZVP
    Number of shells: 133
    Number of basis function: 301
    Number of Cartesian functions: 336
    Spherical Harmonics?: true
    Max angular momentum: 3

  ==> DFT Potential <==

   => Composite Functional: PBE0 <= 

    PBE0 Hyb-GGA Exchange-Correlation Functional

    C. Adamo and V. Barone, J. Chem. Phys. 110, 6158 (1999)
    M. Ernzerhof and G. E. Scuseria, J. Chem. Phys. 110, 5029 (1999)

    Deriv               =              1
    GGA                 =           TRUE
    Meta                =          FALSE

    Exchange Hybrid     =           TRUE
    MP2 Hybrid          =          FALSE

   => Exchange Functionals <=

    0.7500   Perdew, Burke & Ernzerhof

   => Exact (HF) Exchange <=

    0.2500               HF 

   => Correlation Functionals <=

    1.0000   Perdew, Burke & Ernzerhof

   => Molecular Quadrature <=

    Radial Scheme          =       TREUTLER
    Pruning Scheme         =           FLAT
    Nuclear Scheme         =       TREUTLER

    BS radius alpha        =              1
    Pruning alpha          =              1
    Radial Points          =             75
    Spherical Points       =            302
    Total Points           =         472054
    Total Blocks           =           3431
    Max Points             =            256
    Max Functions          =            292

   => Loading Basis Set <=

    Name: (DEF2-TZVP AUX)
    Role: JKFIT
    Keyword: DF_BASIS_SCF
    atoms 1-7  entry C          line   203 file /usr/share/psi4/basis/def2-tzvp-jkfit.gbs 
    atoms 8-21 entry H          line    23 file /usr/share/psi4/basis/def2-tzvp-jkfit.gbs 

   => Loading Basis Set <=

    Name: DEF2-TZVP
    Role: ORBITAL
    Keyword: BASIS
    atoms 1-7  entry C          line   123 file /usr/share/psi4/basis/def2-tzvp.gbs 
    atoms 8-21 entry H          line    15 file /usr/share/psi4/basis/def2-tzvp.gbs 

  Reading orbitals from file 180, no projection.

  ==> Pre-Iterations <==

   -------------------------------------------------------
    Irrep   Nso     Nmo     Nalpha   Nbeta   Ndocc  Nsocc
   -------------------------------------------------------
     A        301     301       0       0       0       0
   -------------------------------------------------------
    Total     301     301      28      28      28       0
   -------------------------------------------------------

  ==> Integral Setup <==

  DFHelper Memory: AOs need 0.540 GiB; user supplied 2.577 GiB. Using in-core AOs.

  ==> MemDFJK: Density-Fitted J/K Matrices <==

    J tasked:                   Yes
    K tasked:                   Yes
    wK tasked:                   No
    OpenMP threads:               4
    Memory [MiB]:              2639
    Algorithm:                 Core
    Schwarz Cutoff:           1E-12
    Mask sparsity (%):       1.8697
    Fitting Condition:        1E-10

   => Auxiliary Basis Set <=

  Basis Set: (DEF2-TZVP AUX)
    Blend: DEF2-TZVP-JKFIT
    Number of shells: 259
    Number of basis function: 777
    Number of Cartesian functions: 903
    Spherical Harmonics?: true
    Max angular momentum: 4

  Cached 100.0% of DFT collocation blocks in 3.011 [GiB].

  Minimum eigenvalue in the overlap matrix is 8.8178933381E-05.
  Using Symmetric Orthogonalization.

  SCF Guess: Orbitals guess was supplied from a previous computation.

  ==> Iterations <==

                           Total Energy        Delta E     RMS |[F,P]|

   @DF-RKS iter   0:  -274.92823554323530   -2.74928e+02   1.66893e-04 
   @DF-RKS iter   1:  -274.94012851317223   -1.18930e-02   1.53453e-05 DIIS
   @DF-RKS iter   2:  -274.94013999036457   -1.14772e-05   1.08446e-05 DIIS
   @DF-RKS iter   3:  -274.94014496710929   -4.97674e-06   3.67820e-06 DIIS
   @DF-RKS iter   4:  -274.94014552808653   -5.60977e-07   7.98732e-07 DIIS
   @DF-RKS iter   5:  -274.94014555471716   -2.66306e-08   3.18136e-07 DIIS
   @DF-RKS iter   6:  -274.94014555915635   -4.43919e-09   8.33772e-08 DIIS
   @DF-RKS iter   7:  -274.94014555944955   -2.93198e-10   1.17150e-08 DIIS
   @DF-RKS iter   8:  -274.94014555945489   -5.34328e-12   3.99753e-09 DIIS
  Energy and wave function converged.


  ==> Post-Iterations <==

    Orbital Energies [Eh]
    ---------------------

    Doubly Occupied:                                                      

       1A    -10.217700     2A    -10.208911     3A    -10.208689  
       4A    -10.208558     5A    -10.208064     6A    -10.208037  
       7A    -10.202332     8A     -0.858326     9A     -0.779124  
      10A     -0.759696    11A     -0.694990    12A     -0.621816  
      13A     -0.609966    14A     -0.542698    15A     -0.496369  
      16A     -0.462093    17A     -0.459374    18A     -0.437839  
      19A     -0.409634    20A     -0.403304    21A     -0.385130  
      22A     -0.367926    23A     -0.363544    24A     -0.346062  
      25A     -0.342341    26A     -0.316313    27A     -0.301337  
      28A     -0.298923  

    Virtual:                                                              

      29A      0.039535    30A      0.060926    31A      0.073957  
      32A      0.080741    33A      0.099377    34A      0.103146  
      35A      0.103334    36A      0.115245    37A      0.115851  
      38A      0.131234    39A      0.145943    40A      0.147134  
      41A      0.157257    42A      0.171168    43A      0.177239  
      44A      0.186469    45A      0.201818    46A      0.221638  
      47A      0.224927    48A      0.238178    49A      0.249495  
      50A      0.251503    51A      0.253102    52A      0.260822  
      53A      0.272072    54A      0.276505    55A      0.283164  
      56A      0.316408    57A      0.333481    58A      0.342124  
      59A      0.370363    60A      0.393107    61A      0.398438  
      62A      0.405923    63A      0.421180    64A      0.423627  
      65A      0.426654    66A      0.427617    67A      0.437998  
      68A      0.446494    69A      0.448607    70A      0.455494  
      71A      0.459528    72A      0.463261    73A      0.479656  
      74A      0.483673    75A      0.491162    76A      0.495646  
      77A      0.497187    78A      0.504682    79A      0.509799  
      80A      0.513423    81A      0.534114    82A      0.538720  
      83A      0.600467    84A      0.607625    85A      0.625001  
      86A      0.661357    87A      0.694401    88A      0.704906  
      89A      0.732007    90A      0.757653    91A      0.768034  
      92A      0.791388    93A      0.793526    94A      0.802741  
      95A      0.806415    96A      0.852224    97A      0.881997  
      98A      0.897825    99A      0.910082   100A      0.929990  
     101A      0.949083   102A      0.971335   103A      0.982362  
     104A      0.998331   105A      1.007029   106A      1.052733  
     107A      1.066189   108A      1.066606   109A      1.112247  
     110A      1.113321   111A      1.135100   112A      1.149761  
     113A      1.164410   114A      1.169290   115A      1.180962  
     116A      1.219657   117A      1.230488   118A      1.243841  
     119A      1.257053   120A      1.289573   121A      1.297223  
     122A      1.319787   123A      1.320573   124A      1.330431  
     125A      1.436750   126A      1.438519   127A      1.509635  
     128A      1.540048   129A      1.552047   130A      1.555781  
     131A      1.578281   132A      1.598516   133A      1.610452  
     134A      1.625014   135A      1.625707   136A      1.634782  
     137A      1.653686   138A      1.667387   139A      1.676959  
     140A      1.691406   141A      1.694831   142A      1.702860  
     143A      1.732966   144A      1.778891   145A      1.794242  
     146A      1.805918   147A      1.833622   148A      1.835916  
     149A      1.867523   150A      1.889706   151A      1.912106  
     152A      1.923904   153A      1.951879   154A      1.955924  
     155A      1.967485   156A      1.998506   157A      2.022230  
     158A      2.031939   159A      2.087820   160A      2.103444  
     161A      2.137094   162A      2.145508   163A      2.169658  
     164A      2.188128   165A      2.206967   166A      2.234501  
     167A      2.249735   168A      2.264751   169A      2.287399  
     170A      2.290404   171A      2.342968   172A      2.358608  
     173A      2.398400   174A      2.412020   175A      2.445101  
     176A      2.452146   177A      2.484183   178A      2.499424  
     179A      2.502621   180A      2.540538   181A      2.549544  
     182A      2.568488   183A      2.578944   184A      2.592363  
     185A      2.602181   186A      2.604189   187A      2.623033  
     188A      2.639612   189A      2.642091   190A      2.643653  
     191A      2.657812   192A      2.664569   193A      2.680264  
     194A      2.690403   195A      2.732267   196A      2.744789  
     197A      2.753536   198A      2.765509   199A      2.774658  
     200A      2.797903   201A      2.816436   202A      2.818365  
     203A      2.858614   204A      2.887234   205A      2.902798  
     206A      2.930406   207A      2.950076   208A      2.960159  
     209A      2.964843   210A      2.998361   211A      3.024740  
     212A      3.031528   213A      3.044399   214A      3.101201  
     215A      3.113243   216A      3.117097   217A      3.136109  
     218A      3.148698   219A      3.173412   220A      3.193603  
     221A      3.216341   222A      3.232882   223A      3.245241  
     224A      3.264564   225A      3.282410   226A      3.292037  
     227A      3.314133   228A      3.324666   229A      3.362371  
     230A      3.379632   231A      3.382904   232A      3.397848  
     233A      3.399800   234A      3.435670   235A      3.441104  
     236A      3.449334   237A      3.471730   238A      3.495434  
     239A      3.507913   240A      3.523661   241A      3.539327  
     242A      3.554150   243A      3.558331   244A      3.568763  
     245A      3.624204   246A      3.624672   247A      3.627008  
     248A      3.663972   249A      3.689312   250A      3.714286  
     251A      3.715966   252A      3.807803   253A      3.819447  
     254A      3.837554   255A      3.890459   256A      3.919464  
     257A      3.945239   258A      3.967176   259A      3.994913  
     260A      4.045112   261A      4.052097   262A      4.061433  
     263A      4.091138   264A      4.097743   265A      4.105369  
     266A      4.127349   267A      4.152862   268A      4.188090  
     269A      4.241949   270A      4.251060   271A      4.274355  
     272A      4.286616   273A      4.333576   274A      4.336854  
     275A      4.371202   276A      4.374233   277A      4.449120  
     278A      4.462680   279A      4.483418   280A      4.513058  
     281A      4.566401   282A      4.600351   283A      4.653152  
     284A      4.715588   285A      4.772601   286A      4.808334  
     287A      4.845948   288A      4.892208   289A      4.896265  
     290A      4.921591   291A      5.021495   292A      5.056605  
     293A      5.095132   294A      5.114257   295A     22.448671  
     296A     22.517454   297A     22.570782   298A     22.604405  
     299A     22.646604   300A     22.706229   301A     22.751188  

    Final Occupation by Irrep:
              A 
    DOCC [    28 ]

  @DF-RKS Final Energy:  -274.94014555945489

   => Energetics <=

    Nuclear Repulsion Energy =            333.4838782133239761
    One-Electron Energy =               -1030.0829700960725859
    Two-Electron Energy =                 454.3207232964682589
    DFT Exchange-Correlation Energy =     -32.6617769731746037
    Empirical Dispersion Energy =           0.0000000000000000
    VV10 Nonlocal Energy =                  0.0000000000000000
    Total Energy =                       -274.9401455594548906

Computation Completed


Properties will be evaluated at   0.000000,   0.000000,   0.000000 [a0]

Properties computed using the SCF density matrix

  Nuclear Dipole Moment: [e a0]
     X:     0.7265      Y:     0.0003      Z:     0.9360

  Electronic Dipole Moment: [e a0]
     X:    -0.7222      Y:    -0.0001      Z:    -0.9676

  Dipole Moment: [e a0]
     X:     0.0044      Y:     0.0002      Z:    -0.0316     Total:     0.0319

  Dipole Moment: [D]
     X:     0.0111      Y:     0.0005      Z:    -0.0804     Total:     0.0812


*** tstop() called on thinkpad at Sat Jul 10 13:26:29 2021
Module time:
	user time   =     108.22 seconds =       1.80 minutes
	system time =       0.87 seconds =       0.01 minutes
	total time  =         31 seconds =       0.52 minutes
Total time:
	user time   =     316.41 seconds =       5.27 minutes
	system time =       3.84 seconds =       0.06 minutes
	total time  =         90 seconds =       1.50 minutes

*** tstart() called on thinkpad
*** at Sat Jul 10 13:26:29 2021


         ------------------------------------------------------------
                                   SCF GRAD                          
                          Rob Parrish, Justin Turney,                
                       Andy Simmonett, and Alex Sokolov              
         ------------------------------------------------------------

  ==> Geometry <==

    Molecular point group: c1
    Full point group: C1

    Geometry (in Angstrom), charge = 0, multiplicity = 1:

       Center              X                  Y                   Z               Mass       
    ------------   -----------------  -----------------  -----------------  -----------------
         C            1.111734829817    -0.000172428140    -0.513997745345    12.000000000000
         C            0.237764118842    -1.253519735567    -0.635270706313    12.000000000000
         C            0.238176588601     1.253507749744    -0.635207534487    12.000000000000
         C           -0.921636339676    -1.258101661812     0.357018111674    12.000000000000
         C           -0.921638205386     1.258400398985     0.356627933551    12.000000000000
         C           -1.773875196224     0.000124066490     0.216999453032    12.000000000000
         C            1.964387584142    -0.000267421600     0.769978027602    12.000000000000
         H            1.795303350641    -0.000224441860    -1.369556390134     1.007825032230
         H            0.855848830828    -2.147909182729    -0.504590265735     1.007825032230
         H           -0.172935097022    -1.300792503024    -1.650882977444     1.007825032230
         H           -0.172117158519     1.301147319975    -1.650957534596     1.007825032230
         H            0.856469835512     2.147702543222    -0.504105782860     1.007825032230
         H           -0.532470600963    -1.310879039494     1.380300648329     1.007825032230
         H           -1.532550575616    -2.153875577957     0.210118093845     1.007825032230
         H           -1.532466360790     2.154123219215     0.209049905346     1.007825032230
         H           -0.533007119450     1.311706155970     1.380077628426     1.007825032230
         H           -2.250900787261    -0.000074033265    -0.770684599685     1.007825032230
         H           -2.579781933553     0.000278789413     0.957315615856     1.007825032230
         H            3.030040853905     0.008385625597     0.534217236046     1.007825032230
         H            1.765597501360     0.874342731399     1.393286504901     1.007825032230
         H            1.777944493361    -0.883585928603     1.384828796875     1.007825032230

  Nuclear repulsion =  333.483878213323976

  ==> Basis Set <==

  Basis Set: DEF2-TZVP
    Blend: DEF2-TZVP
    Number of shells: 133
    Number of basis function: 301
    Number of Cartesian functions: 336
    Spherical Harmonics?: true
    Max angular momentum: 3

  ==> DFJKGrad: Density-Fitted SCF Gradients <==

    Gradient:                    1
    J tasked:                  Yes
    K tasked:                  Yes
    wK tasked:                  No
    OpenMP threads:              4
    Integrals threads:           4
    Memory [MiB]:             5722
    Schwarz Cutoff:          0E+00
    Fitting Condition:       1E-10

   => Auxiliary Basis Set <=

  Basis Set: (DEF2-TZVP AUX)
    Blend: DEF2-TZVP-JKFIT
    Number of shells: 259
    Number of basis function: 777
    Number of Cartesian functions: 903
    Spherical Harmonics?: true
    Max angular momentum: 4

  ==> DFT Potential <==

   => Composite Functional: PBE0 <= 

    PBE0 Hyb-GGA Exchange-Correlation Functional

    C. Adamo and V. Barone, J. Chem. Phys. 110, 6158 (1999)
    M. Ernzerhof and G. E. Scuseria, J. Chem. Phys. 110, 5029 (1999)

    Deriv               =              1
    GGA                 =           TRUE
    Meta                =          FALSE

    Exchange Hybrid     =           TRUE
    MP2 Hybrid          =          FALSE

   => Exchange Functionals <=

    0.7500   Perdew, Burke & Ernzerhof

   => Exact (HF) Exchange <=

    0.2500               HF 

   => Correlation Functionals <=

    1.0000   Perdew, Burke & Ernzerhof

   => Molecular Quadrature <=

    Radial Scheme          =       TREUTLER
    Pruning Scheme         =           FLAT
    Nuclear Scheme         =       TREUTLER

    BS radius alpha        =              1
    Pruning alpha          =              1
    Radial Points          =             75
    Spherical Points       =            302
    Total Points           =         472054
    Total Blocks           =           3431
    Max Points             =            256
    Max Functions          =            292


  -Total Gradient:
     Atom            X                  Y                   Z
    ------   -----------------  -----------------  -----------------
       1        0.000158376165     0.000019652930     0.000149770870
       2        0.000743627734    -0.001150093847    -0.001345748262
       3        0.000711944716     0.001125462314    -0.001336824513
       4       -0.000526815585    -0.001810707815     0.000780973052
       5       -0.000523995470     0.001813988131     0.000780363932
       6       -0.001939490001    -0.000001298511     0.000454023326
       7        0.001092802758    -0.000006787113     0.001494208356
       8       -0.000100949799     0.000024328806    -0.000169013591
       9        0.000173012995     0.000094802217     0.000140355911
      10       -0.000156414835     0.000148573028     0.000458179834
      11       -0.000160792810    -0.000150189751     0.000458866344
      12        0.000173742494    -0.000099062917     0.000139377123
      13       -0.000147675939     0.000499714577    -0.000486058218
      14        0.000132918753    -0.000150125242    -0.000326889755
      15        0.000131967842     0.000150824517    -0.000326906219
      16       -0.000140535322    -0.000500005143    -0.000480896398
      17        0.000655722268    -0.000000808927     0.000270777916
      18       -0.000021825186     0.000000310469     0.000240224089
      19       -0.000211103754    -0.000030546672    -0.000182003998
      20        0.000003941280    -0.000007570883    -0.000392502227
      21       -0.000024477884     0.000028622018    -0.000356453825


*** tstop() called on thinkpad at Sat Jul 10 13:26:43 2021
Module time:
	user time   =      48.63 seconds =       0.81 minutes
	system time =       0.45 seconds =       0.01 minutes
	total time  =         14 seconds =       0.23 minutes
Total time:
	user time   =     365.05 seconds =       6.08 minutes
	system time =       4.29 seconds =       0.07 minutes
	total time  =        104 seconds =       1.73 minutes

			-----------------------------------------
			 OPTKING 2.0: for geometry optimizations 
			  - R.A. King,  Bethel University        
			-----------------------------------------

	Previous internal coordinate definitions found.
	---Fragment 1 Geometry and Gradient---
	 C           2.1008743525       -0.0003258420       -0.9713149678
	 C           0.4493090671       -2.3688089931       -1.2004876505
	 C           0.4500885220        2.3687863432       -1.2003682730
	 C          -1.7416402693       -2.3774675788        0.6746664529
	 C          -1.7416437949        2.3780321102        0.6739291231
	 C          -3.3521383016        0.0002344517        0.4100695356
	 C           3.7121545383       -0.0005053536        1.4550475948
	 H           3.3926316448       -0.0004241336       -2.5880864907
	 H           1.6173198951       -4.0589600977       -0.9535374078
	 H          -0.3267999709       -2.4581415768       -3.1197166925
	 H          -0.3252542911        2.4588120836       -3.1198575851
	 H           1.6184934238        4.0585696056       -0.9526218679
	 H          -1.0062236057       -2.4772023682        2.6083901961
	 H          -2.8961008613       -4.0702349507        0.3970656514
	 H          -2.8959417184        4.0707029248        0.3950470677
	 H          -1.0072374787        2.4787653919        2.6079687496
	 H          -4.2535860235       -0.0001399026       -1.4563828225
	 H          -4.8750813178        0.0005268356        1.8090643296
	 H           5.7259473628        0.0158465358        1.0095242676
	 H           3.3364957254        1.6522683021        2.6329299086
	 H           3.3598281587       -1.6697354134        2.6169471567
	             0.0001583762        0.0000196529        0.0001497709
	             0.0007436277       -0.0011500938       -0.0013457483
	             0.0007119447        0.0011254623       -0.0013368245
	            -0.0005268156       -0.0018107078        0.0007809731
	            -0.0005239955        0.0018139881        0.0007803639
	            -0.0019394900       -0.0000012985        0.0004540233
	             0.0010928028       -0.0000067871        0.0014942084
	            -0.0001009498        0.0000243288       -0.0001690136
	             0.0001730130        0.0000948022        0.0001403559
	            -0.0001564148        0.0001485730        0.0004581798
	            -0.0001607928       -0.0001501898        0.0004588663
	             0.0001737425       -0.0000990629        0.0001393771
	            -0.0001476759        0.0004997146       -0.0004860582
	             0.0001329188       -0.0001501252       -0.0003268898
	             0.0001319678        0.0001508245       -0.0003269062
	            -0.0001405353       -0.0005000051       -0.0004808964
	             0.0006557223       -0.0000008089        0.0002707779
	            -0.0000218252        0.0000003105        0.0002402241
	            -0.0002111038       -0.0000305467       -0.0001820040
	             0.0000039413       -0.0000075709       -0.0003925022
	            -0.0000244779        0.0000286220       -0.0003564538

	---Fragment 1 Intrafragment Coordinates---
	 - Coordinate -           - BOHR/RAD -       - ANG/DEG -
	 R(1,2)           =         2.896532	       1.532779
	 R(1,3)           =         2.896593	       1.532811
	 R(1,7)           =         2.912638	       1.541302
	 R(1,8)           =         2.069441	       1.095101
	 R(2,4)           =         2.883841	       1.526063
	 R(2,9)           =         2.069262	       1.095006
	 R(2,10)          =         2.072140	       1.096529
	 R(3,5)           =         2.883881	       1.526084
	 R(3,11)          =         2.072125	       1.096521
	 R(3,12)          =         2.069279	       1.095015
	 R(4,6)           =         2.883953	       1.526122
	 R(4,13)          =         2.071249	       1.096058
	 R(4,14)          =         2.067681	       1.094169
	 R(5,6)           =         2.883962	       1.526127
	 R(5,15)          =         2.067683	       1.094171
	 R(5,16)          =         2.071234	       1.096050
	 R(6,17)          =         2.072740	       1.096847
	 R(6,18)          =         2.067980	       1.094328
	 R(7,19)          =         2.062552	       1.091455
	 R(7,20)          =         2.064022	       1.092233
	 R(7,21)          =         2.064091	       1.092270
	 B(1,2,4)         =         1.965137	     112.594038
	 B(1,2,9)         =         1.914097	     109.669659
	 B(1,2,10)        =         1.898736	     108.789579
	 B(1,3,5)         =         1.965304	     112.603621
	 B(1,3,11)        =         1.898672	     108.785881
	 B(1,3,12)        =         1.914139	     109.672092
	 B(1,7,19)        =         1.939259	     111.111365
	 B(1,7,20)        =         1.954830	     112.003501
	 B(1,7,21)        =         1.954711	     111.996673
	 B(2,1,3)         =         1.915142	     109.729554
	 B(2,1,7)         =         1.961987	     112.413560
	 B(2,1,8)         =         1.869271	     107.101312
	 B(2,4,6)         =         1.941347	     111.230973
	 B(2,4,13)        =         1.915002	     109.721517
	 B(2,4,14)        =         1.917019	     109.837077
	 B(3,1,7)         =         1.961889	     112.407959
	 B(3,1,8)         =         1.869203	     107.097461
	 B(3,5,6)         =         1.941529	     111.241421
	 B(3,5,15)        =         1.916902	     109.830401
	 B(3,5,16)        =         1.915114	     109.727924
	 B(4,2,9)         =         1.927071	     110.413033
	 B(4,2,10)        =         1.893953	     108.515536
	 B(4,6,5)         =         1.938547	     111.070548
	 B(4,6,17)        =         1.902162	     108.985843
	 B(4,6,18)        =         1.927622	     110.444631
	 B(5,3,11)        =         1.893926	     108.513965
[...]
	 D(8,1,3,12)      =        -1.158807	     -66.394774
	 D(8,1,7,19)      =         1.043262	      59.774497
	 D(8,1,7,20)      =         3.141189	     179.976853
	 D(8,1,7,21)      =        -1.043954	     -59.814164
	 D(9,2,4,13)      =         0.996208	      57.078509
	 D(9,2,4,14)      =        -1.035346	     -59.320953
	 D(10,2,4,13)     =         3.024820	     173.309416
	 D(10,2,4,14)     =         0.993266	      56.909954
	 D(11,3,5,15)     =        -0.993916	     -56.947197
	 D(11,3,5,16)     =        -3.025507	    -173.348779
	 D(12,3,5,15)     =         1.034783	      59.288676
	 D(12,3,5,16)     =        -0.996808	     -57.112906
	 D(13,4,6,17)     =        -3.022940	    -173.201728
	 D(13,4,6,18)     =        -0.986118	     -56.500415
	 D(14,4,6,17)     =        -0.992677	     -56.876176
	 D(14,4,6,18)     =         1.044146	      59.825137
	 D(15,5,6,17)     =         0.992973	      56.893146
	 D(15,5,6,18)     =        -1.043860	     -59.808781
	 D(16,5,6,17)     =         3.023298	     173.222190
	 D(16,5,6,18)     =         0.986465	      56.520264
	 R(6,7)           =         7.135940	       3.776177

	Current energy   :      -274.9441780186

	Energy change for the previous step:
		Projected    :        -0.0000444325
		Actual       :        -0.0000023534
	Energy ratio indicates iffy step: Trust radius decreased to 6.592e-03.


	Performing BFGS update.
	Previous computed or guess Hessian on step 1.
	Steps to be used in Hessian update: 25 24
	Taking RFO optimization step.
	Going to follow RFO solution 1.
	Using RFO vector 1.
	Norm of target step-size    0.00246
	Projected energy change by RFO approximation:        -0.0000000929

	Back-transformation to cartesian coordinates...
	Successfully converged to displaced geometry.
	First geometry is closer to target in internal coordinates, so am using that one.
	First geometry has RMS(Delta(q)) = 1.70e-07

	--- Internal Coordinate Step in ANG or DEG, aJ/ANG or AJ/DEG ---
	 ---------------------------------------------------------------------------
	   Coordinate                Previous        Force       Change         New 
	   ----------                --------       ------       ------       ------
	    1 R(1,2)          =      1.531392    -0.000088    -0.000031     1.531361
	    2 R(1,3)          =      1.531344     0.000098     0.000026     1.531370
	    3 R(1,7)          =      1.524604    -0.000033    -0.000008     1.524595
	    4 R(1,8)          =      1.096688     0.000017     0.000004     1.096691
	    5 R(2,4)          =      1.524566    -0.000115    -0.000052     1.524514
	    6 R(2,9)          =      1.095143     0.000007     0.000002     1.095145
	    7 R(2,10)         =      1.097105     0.000001    -0.000001     1.097104
	    8 R(3,5)          =      1.524538    -0.000063    -0.000006     1.524532
	    9 R(3,11)         =      1.097099     0.000022     0.000004     1.097103
	   10 R(3,12)         =      1.095147    -0.000008    -0.000002     1.095144
	   11 R(4,6)          =      1.523321    -0.000039    -0.000029     1.523292
	   12 R(4,13)         =      1.096214    -0.000047    -0.000010     1.096204
	   13 R(4,14)         =      1.094303     0.000024     0.000006     1.094309
	   14 R(5,6)          =      1.523305    -0.000049    -0.000009     1.523296
	   15 R(5,15)         =      1.094304     0.000026     0.000006     1.094309
	   16 R(5,16)         =      1.096217    -0.000084    -0.000015     1.096202
	   17 R(6,17)         =      1.097807    -0.000125    -0.000023     1.097784
	   18 R(6,18)         =      1.094306     0.000026     0.000006     1.094312
	   19 R(7,19)         =      1.093386    -0.000002     0.000003     1.093390
	   20 R(7,20)         =      1.092325    -0.000048    -0.000005     1.092320
	   21 R(7,21)         =      1.093376     0.000034     0.000009     1.093385
	   22 B(1,2,4)        =    112.913818    -0.000000    -0.006478   112.907340
	   23 B(1,2,9)        =    109.831079     0.000000     0.003291   109.834371
	   24 B(1,2,10)       =    108.599745     0.000000     0.001354   108.601100
	   25 B(1,3,5)        =    112.905031     0.000000     0.006150   112.911181
	   26 B(1,3,11)       =    108.598590     0.000000     0.001700   108.600290
	   27 B(1,3,12)       =    109.835704    -0.000000    -0.002012   109.833692
	   28 B(1,7,19)       =    110.839224     0.000001     0.004859   110.844084
	   29 B(1,7,20)       =    112.423766     0.000000     0.000343   112.424109
	   30 B(1,7,21)       =    110.846597    -0.000001    -0.003466   110.843131
	   31 B(2,1,3)        =    109.909436    -0.000000    -0.000975   109.908461
	   32 B(2,1,7)        =    112.311631     0.000000     0.000746   112.312377
	   33 B(2,1,8)        =    107.534938    -0.000000    -0.003938   107.530999
	   34 B(2,4,6)        =    111.227383     0.000000    -0.002029   111.225354
	   35 B(2,4,13)       =    109.952473     0.000000     0.000717   109.953190
	   36 B(2,4,14)       =    109.788042    -0.000000     0.001144   109.789185
	   37 B(3,1,7)        =    112.311399     0.000000     0.002865   112.314264
	   38 B(3,1,8)        =    107.533043     0.000000     0.000519   107.533562
	   39 B(3,5,6)        =    111.223854    -0.000000     0.004125   111.227979
	   40 B(3,5,15)       =    109.787601     0.000000     0.002919   109.790520
	   41 B(3,5,16)       =    109.952682     0.000000    -0.001018   109.951664
	   42 B(4,2,9)        =    110.315628    -0.000000    -0.000051   110.315577
	   43 B(4,2,10)       =    108.526325     0.000000     0.002759   108.529084
	   44 B(4,6,5)        =    111.219586     0.000000     0.002639   111.222225
	   45 B(4,6,17)       =    109.065896    -0.000000    -0.002497   109.063399
	   46 B(4,6,18)       =    110.429573    -0.000000     0.001150   110.430722
	   47 B(5,3,11)       =    108.529420    -0.000000    -0.001809   108.527611
	   48 B(5,3,12)       =    110.315986     0.000000    -0.000666   110.315320
	   49 B(5,6,17)       =    109.068133    -0.000000    -0.005099   109.063034
	   50 B(5,6,18)       =    110.428339     0.000000     0.003672   110.432011
	   51 B(6,4,13)       =    109.307246    -0.000000    -0.002191   109.305056
	   52 B(6,4,14)       =    110.311333    -0.000000     0.002848   110.314181
	   53 B(6,5,15)       =    110.313803     0.000000    -0.000444   110.313359
	   54 B(6,5,16)       =    109.306942    -0.000000    -0.002546   109.304396
	   55 B(7,1,8)        =    106.967862    -0.000000     0.000499   106.968361
	   56 B(9,2,10)       =    106.421336    -0.000000    -0.000516   106.420821
	   57 B(11,3,12)      =    106.423813    -0.000000    -0.003917   106.419896
	   58 B(13,4,14)      =    106.125113     0.000000    -0.000411   106.124702
	   59 B(15,5,16)      =    106.126973    -0.000000    -0.003433   106.123540
	   60 B(17,6,18)      =    106.496523     0.000000    -0.000180   106.496342
	   61 B(19,7,20)      =    107.391365    -0.000000    -0.000393   107.390973
	   62 B(19,7,21)      =    107.737747     0.000000     0.000217   107.737964
	   63 B(20,7,21)      =    107.392517     0.000000    -0.001661   107.390856
	   64 D(1,2,4,6)      =     54.986288     0.000000     0.022202    55.008490
	   65 D(1,2,4,13)     =    -66.236020     0.000000     0.025817   -66.210203
	   66 D(1,2,4,14)     =    177.364518     0.000000     0.025231   177.389748
	   67 D(1,3,5,6)      =    -55.018153     0.000000     0.025557   -54.992596
	   68 D(1,3,5,15)     =   -177.396834     0.000000     0.021336  -177.375498
	   69 D(1,3,5,16)     =     66.201584    -0.000000     0.024387    66.225971
	   70 D(2,1,3,5)      =     53.250777     0.000000    -0.008607    53.242169
	   71 D(2,1,3,11)     =    -67.159313     0.000000    -0.011423   -67.170736
	   72 D(2,1,3,12)     =    176.830993     0.000000    -0.006587   176.824406
	   73 D(2,1,7,19)     =    177.530129    -0.000000     0.015845   177.545974
	   74 D(2,1,7,20)     =    -62.267515     0.000000     0.018973   -62.248542
	   75 D(2,1,7,21)     =     57.941467    -0.000000     0.014661    57.956128
	   76 D(2,4,6,5)      =    -55.131214     0.000000    -0.007277   -55.138491
	   77 D(2,4,6,17)     =     65.199101    -0.000000    -0.013586    65.185514
	   78 D(2,4,6,18)     =   -178.099586    -0.000000    -0.014620  -178.114206
	   79 D(3,1,2,4)      =    -53.236594    -0.000000    -0.013205   -53.249799
	   80 D(3,1,2,9)      =   -176.819162    -0.000000    -0.010975  -176.830137
	   81 D(3,1,2,10)     =     67.176001    -0.000000    -0.012934    67.163067
	   82 D(3,1,7,19)     =    -57.978697    -0.000000     0.017361   -57.961336
	   83 D(3,1,7,20)     =     62.223659     0.000000     0.020490    62.244148
	   84 D(3,1,7,21)     =   -177.567359    -0.000000     0.016177  -177.551182
	   85 D(3,5,6,4)      =     55.148117    -0.000000    -0.017820    55.130297
	   86 D(3,5,6,17)     =    -65.180875    -0.000000    -0.013048   -65.193924
	   87 D(3,5,6,18)     =    178.117199    -0.000000    -0.011926   178.105272
	   88 D(4,2,1,7)      =     72.571756     0.000000    -0.009642    72.562114
	   89 D(4,2,1,8)      =   -170.009640     0.000000    -0.011075  -170.020715
	   90 D(4,6,5,15)     =    177.222138    -0.000000    -0.011611   177.210527
	   91 D(4,6,5,16)     =    -66.448818    -0.000000    -0.017516   -66.466334
	   92 D(5,3,1,7)      =    -72.557706    -0.000000    -0.010965   -72.568671
	   93 D(5,3,1,8)      =    170.025009    -0.000000    -0.013529   170.011480
	   94 D(5,6,4,13)     =     66.467958     0.000000    -0.009169    66.458789
	   95 D(5,6,4,14)     =   -177.206490     0.000000    -0.009316  -177.215806
	   96 D(6,4,2,9)      =    178.300818     0.000000     0.021784   178.322601
	   97 D(6,4,2,10)     =    -65.468276     0.000000     0.022729   -65.445547
	   98 D(6,5,3,11)     =     65.431484     0.000000     0.030373    65.461857
	   99 D(6,5,3,12)     =   -178.332644     0.000000     0.024246  -178.308398
	  100 D(7,1,2,9)      =    -51.010812     0.000000    -0.007411   -51.018223
	  101 D(7,1,2,10)     =   -167.015648     0.000000    -0.009371  -167.025020
	  102 D(7,1,3,11)     =    167.032204    -0.000000    -0.013780   167.018424
	  103 D(7,1,3,12)     =     51.022511    -0.000000    -0.008945    51.013566
	  104 D(8,1,2,9)      =     66.407792     0.000000    -0.008844    66.398948
	  105 D(8,1,2,10)     =    -49.597045     0.000000    -0.010804   -49.607849
	  106 D(8,1,3,11)     =     49.614919    -0.000000    -0.016344    49.598575
	  107 D(8,1,3,12)     =    -66.394774    -0.000000    -0.011509   -66.406283
	  108 D(8,1,7,19)     =     59.774497     0.000000     0.019911    59.794408
	  109 D(8,1,7,20)     =    179.976853     0.000000     0.023147   180.000000
	  110 D(8,1,7,21)     =    -59.814164     0.000000     0.018727   -59.795437
	  111 D(9,2,4,13)     =     57.078509     0.000000     0.025399    57.103908
	  112 D(9,2,4,14)     =    -59.320953     0.000000     0.024812   -59.296141
	  113 D(10,2,4,13)    =    173.309416     0.000000     0.026344   173.335760
	  114 D(10,2,4,14)    =     56.909954     0.000000     0.025757    56.935712
	  115 D(11,3,5,15)    =    -56.947197     0.000000     0.026152   -56.921045
	  116 D(11,3,5,16)    =   -173.348779     0.000000     0.029202  -173.319576
	  117 D(12,3,5,15)    =     59.288676    -0.000000     0.020025    59.308700
	  118 D(12,3,5,16)    =    -57.112906    -0.000000     0.023075   -57.089831
	  119 D(13,4,6,17)    =   -173.201728    -0.000000    -0.015478  -173.217205
	  120 D(13,4,6,18)    =    -56.500415    -0.000000    -0.016511   -56.516926
	  121 D(14,4,6,17)    =    -56.876176    -0.000000    -0.015625   -56.891801
	  122 D(14,4,6,18)    =     59.825137    -0.000000    -0.016658    59.808479
	  123 D(15,5,6,17)    =     56.893146     0.000000    -0.006840    56.886306
	  124 D(15,5,6,18)    =    -59.808781     0.000000    -0.005718   -59.814498
	  125 D(16,5,6,17)    =    173.222190    -0.000000    -0.012744   173.209445
	  126 D(16,5,6,18)    =     56.520264    -0.000000    -0.011622    56.508641
	  127 R(6,7)          =      3.776177    -0.000028    -0.000027     3.776150
	 ---------------------------------------------------------------------------
	Successfully symmetrized geometry.

  ==> Convergence Check <==

  Measures of convergence in internal coordinates in au.
  Criteria marked as inactive (o), active & met (*), and active & unmet ( ).
  ---------------------------------------------------------------------------------------------
   Step     Total Energy     Delta E     MAX Force     RMS Force      MAX Disp      RMS Disp   
  ---------------------------------------------------------------------------------------------
    Convergence Criteria    1.00e-06 *    3.00e-04 *             o    1.20e-03 *             o
  ---------------------------------------------------------------------------------------------
     26    -274.94417802   -2.35e-06      1.52e-05 *    3.88e-06 o    5.30e-04 *    2.19e-04 o  ~
  ---------------------------------------------------------------------------------------------


  **** Optimization is complete! (in 26 steps) ****

  ==> Optimization Summary <==

  Measures of convergence in internal coordinates in au.
  --------------------------------------------------------------------------------------------------------------- ~
   Step         Total Energy             Delta E       MAX Force       RMS Force        MAX Disp        RMS Disp  ~
  --------------------------------------------------------------------------------------------------------------- ~
      1    -274.939614969824   -274.939614969824      0.00352253      0.00095516      0.05325714      0.01996256  ~
      2    -274.940145559455     -0.000530589631      0.00124843      0.00030207      0.02272146      0.00428855  ~
      3    -274.940189986226     -0.000044426771      0.00025976      0.00006605      0.01442979      0.00384738  ~
      4    -274.940196046556     -0.000006060329      0.00008527      0.00003084      0.08463486      0.02217681  ~
      5    -274.940248430775     -0.000052384220      0.00130330      0.00035431      0.12692215      0.02220688  ~
      6    -274.931233273846      0.009015156930      0.05130798      0.00769026      0.11654909      0.01910569  ~
      7    -274.940295088695     -0.009061814849      0.00240362      0.00038903      0.08406110      0.02213456  ~
      8    -274.940551885328     -0.000256796633      0.00106123      0.00019941      0.06659627      0.01997496  ~
      9    -274.940702131061     -0.000150245733      0.00185275      0.00044903      0.02156766      0.00554698  ~
     10    -274.940793318245     -0.000091187184      0.00194151      0.00048767      0.02205657      0.00554464  ~
     11    -274.940923574563     -0.000130256318      0.00238224      0.00047908      0.02160790      0.00554406  ~
     12    -274.941046717155     -0.000123142592      0.00250867      0.00041883      0.06306249      0.01664868  ~
     13    -274.941376397099     -0.000329679944      0.00275861      0.00041745      0.06296168      0.01666007  ~
     14    -274.941741858221     -0.000365461122      0.00098342      0.00028785      0.06413455      0.01665670  ~
     15    -274.942088744462     -0.000346886240      0.00188535      0.00041270      0.06281742      0.01663551  ~
     16    -274.942430108371     -0.000341363909      0.00146680      0.00044770      0.06278806      0.01660912  ~
     17    -274.942801055787     -0.000370947416      0.00232242      0.00043220      0.06313987      0.01663547  ~
     18    -274.943165059418     -0.000364003631      0.00136987      0.00029294      0.06287147      0.01662325  ~
     19    -274.943483140518     -0.000318081100      0.00095966      0.00021423      0.01565893      0.00416479  ~
     20    -274.943556393902     -0.000073253384      0.00051706      0.00016274      0.04691774      0.01246342  ~
     21    -274.943740157788     -0.000183763885      0.00154685      0.00026560      0.13442317      0.03748090  ~
     22    -274.943868206742     -0.000128048954      0.00355510      0.00074914      0.11854558      0.03741486  ~
     23    -274.944075692066     -0.000207485324      0.00122340      0.00034420      0.03281762      0.00936035  ~
     24    -274.944166809369     -0.000091117304      0.00070340      0.00012101      0.00921591      0.00234037  ~
     25    -274.944175665203     -0.000008855833      0.00004426      0.00001268      0.00602363      0.00223823  ~
     26    -274.944178018555     -0.000002353352      0.00001522      0.00000388      0.00053010      0.00021856  ~
  --------------------------------------------------------------------------------------------------------------- ~

	Writing optimization data to binary file.
	Final energy is   -274.9441780185546
	Final (previous) structure:
	Cartesian Geometry (in Angstrom)
	    C     1.0967391628  -0.0189497195  -0.5442522969
	    C     0.2248116124  -1.2773262118  -0.5815552448
	    C     0.2186666840   1.2281403889  -0.6812511722
	    C    -0.9107270848  -1.2430181465   0.4351430269
	    C    -0.9165900156   1.2691052592   0.3354739372
	    C    -1.7656183377   0.0063011319   0.2652294025
	    C     1.9861643489   0.0324766408   0.6929603546
	    H     1.7619761891  -0.0519593128  -1.4155121231
	    H     0.8470133499  -2.1651667770  -0.4268217404
	    H    -0.2084250060  -1.3732402737  -1.5849221445
	    H    -0.2150661957   1.2417167067  -1.6888811869
	    H     0.8364239134   2.1285704211  -0.5978963419
	    H    -0.5029163708  -1.2675470736   1.4523818526
	    H    -1.5267819337  -2.1416437225   0.3329272687
	    H    -1.5368131345   2.1539784780   0.1627803425
	    H    -0.5088087563   1.3758575644   1.3474077991
	    H    -2.2691485831  -0.0335678392  -0.7094746205
	    H    -2.5554707794   0.0345024101   1.0220933739
	    H     2.6286920275   0.9169412507   0.6736089759
	    H     1.4091425194   0.0683224367   1.6197482185
	    H     2.6326254302  -0.8478211176   0.7442933959
	Saving final (previous) structure.
			--------------------------
			 OPTKING Finished Execution 
			--------------------------

    Final optimized geometry and variables:
    Molecular point group: c1
    Full point group: C1

    Geometry (in Angstrom), charge = 0, multiplicity = 1:

    C            1.096739167114    -0.018949719533    -0.544252299038
    C            0.224811613290    -1.277326216788    -0.581555247064
    C            0.218666684905     1.228140393741    -0.681251174856
    C           -0.910727088397    -1.243018151357     0.435143028635
    C           -0.916590019167     1.269105264164     0.335473938564
    C           -1.765618344686     0.006301131918     0.265229403535
    C            1.986164356731     0.032476640953     0.692960357333
    H            1.761976196048    -0.051959313005    -1.415512128641
    H            0.847013353202    -2.165166785464    -0.426821742118
    H           -0.208425006851    -1.373240279110    -1.584922150719
    H           -0.215066196552     1.241716711552    -1.688881193586
    H            0.836423916724     2.128570429419    -0.597896344220
    H           -0.502916372747    -1.267547078600     1.452381858289
    H           -1.526781939751    -2.141643730885     0.332927269988
    H           -1.536813140493     2.153978486487     0.162780343136
    H           -0.508808758319     1.375857569836     1.347407804347
    H           -2.269148592003    -0.033567839342    -0.709474623309
    H           -2.555470789457     0.034502410212     1.022093377906
    H            2.628692037787     0.916941254303     0.673608978584
    H            1.409142524940     0.068322436933     1.619748224837
    H            2.632625440530    -0.847821120931     0.744293398860

	Removing binary optimization data file.
	Cleaning optimization helper files.

    Psi4 stopped on: Saturday, 10 July 2021 01:45PM
    Psi4 wall time for execution: 0:20:14.38

*** Psi4 exiting successfully. Buy a developer a beer!
