      -----------------------------------------------------------      
     |                   =====================                   |     
     |                           x T B                           |     
     |                   =====================                   |     
     |                         S. Grimme                         |     
     |          Mulliken Center for Theoretical Chemistry        |     
     |                    University of Bonn                     |     
      -----------------------------------------------------------      

   * xtb version 6.4.1-2.fc34.fc34 compiled by Fedora project on Wed Jun 30 15:53:26 UTC 2021

   xtb is free software: you can redistribute it and/or modify it under
   the terms of the GNU Lesser General Public License as published by
   the Free Software Foundation, either version 3 of the License, or
   (at your option) any later version.
   
   xtb is distributed in the hope that it will be useful,
   but WITHOUT ANY WARRANTY; without even the implied warranty of
   MERCHANTABILITY or FITNESS FOR A PARTICULAR PURPOSE.  See the
   GNU Lesser General Public License for more details.
   
   Cite this work as:
   * C. Bannwarth, E. Caldeweyher, S. Ehlert, A. Hansen, P. Pracht,
     J. Seibert, S. Spicher, S. Grimme, WIREs Comput. Mol. Sci., 2020, 11,
     e01493. DOI: 10.1002/wcms.1493
   
   for GFN2-xTB:
   * C. Bannwarth, S. Ehlert and S. Grimme., J. Chem. Theory Comput., 2019,
     15, 1652-1671. DOI: 10.1021/acs.jctc.8b01176
   for GFN1-xTB:
   * S. Grimme, C. Bannwarth, P. Shushkov, J. Chem. Theory Comput., 2017,
     13, 1989-2009. DOI: 10.1021/acs.jctc.7b00118
   for GFN0-xTB:
   * P. Pracht, E. Caldeweyher, S. Ehlert, S. Grimme, ChemRxiv, 2019, preprint.
     DOI: 10.26434/chemrxiv.8326202.v1
   for GFN-FF:
   * S. Spicher and S. Grimme, Angew. Chem. Int. Ed., 2020, 59, 15665-15673.
     DOI: 10.1002/anie.202004239
   
   for DFT-D4:
   * E. Caldeweyher, C. Bannwarth and S. Grimme, J. Chem. Phys., 2017,
     147, 034112. DOI: 10.1063/1.4993215
   * E. Caldeweyher, S. Ehlert, A. Hansen, H. Neugebauer, S. Spicher,
     C. Bannwarth and S. Grimme, J. Chem. Phys., 2019, 150, 154122.
     DOI: 10.1063/1.5090222
   * E. Caldeweyher, J.-M. Mewes, S. Ehlert and S. Grimme, Phys. Chem. Chem. Phys.
     2020, 22, 8499-8512. DOI: 10.1039/D0CP00502A
   
   for sTDA-xTB:
   * S. Grimme and C. Bannwarth, J. Chem. Phys., 2016, 145, 054103.
     DOI: 10.1063/1.4959605
   
   in the mass-spec context:
   * V. Asgeirsson, C. Bauer and S. Grimme, Chem. Sci., 2017, 8, 4879.
     DOI: 10.1039/c7sc00601b
   * J. Koopman and S. Grimme, ACS Omega 2019, 4, 12, 15120-15133.
     DOI: 10.1021/acsomega.9b02011
   
   for metadynamics refer to:
   * S. Grimme, J. Chem. Theory Comput., 2019, 155, 2847-2862
     DOI: 10.1021/acs.jctc.9b00143
   
   for SPH calculations refer to:
   * S. Spicher and S. Grimme, J. Chem. Theory Comput., 2021, 17, 1701-1714
     DOI: 10.1021/acs.jctc.0c01306
   
   with help from (in alphabetical order)
   P. Atkinson, C. Bannwarth, F. Bohle, G. Brandenburg, E. Caldeweyher
   M. Checinski, S. Dohm, S. Ehlert, S. Ehrlich, I. Gerasimov, J. Koopman
   C. Lavigne, S. Lehtola, F. März, M. Müller, F. Musil, H. Neugebauer
   J. Pisarek, C. Plett, P. Pracht, J. Seibert, P. Shushkov, S. Spicher
   M. Stahn, M. Steiner, T. Strunk, J. Stückrath, T. Rose, and J. Unsleber
   
 * started run on 2021/08/09 at 17:30:49.662     

           -------------------------------------------------
          |                Calculation Setup                |
           -------------------------------------------------

          program call               : xtb -gfn 1 conformer2.xyz
          hostname                   : thinkpad
          coordinate file            : conformer2.xyz
          omp threads                :                     4
          number of atoms            :                    21
          number of electrons        :                    42
          charge                     :                     0
          spin                       :                   0.0
          first test random number   :      0.18222659604525

   ID    Z sym.   atoms
    1    6 C      1-7
    2    1 H      8-21
########################################################################
[WARNING] Please study the warnings concerning your input carefully
-1- prog_main_parseArguments: the use of '-gfn' is discouraged, please use '--gfn' next time
########################################################################

           -------------------------------------------------
          |                 G F N 1 - x T B                 |
           -------------------------------------------------

        Reference                      10.1021/acs.jctc.7b00118
      * Hamiltonian:
        H0-scaling (s, p, d)           1.850000    2.250000    2.000000
        zeta-weighting                 0.000000
      * Dispersion:
        s8                             2.400000
        a1                             0.630000
        a2                             5.000000
        s9                             0.000000
      * Repulsion:
        kExp                           1.500000
        rExp                           1.000000
      * Coulomb:
        alpha                          2.000000
        third order                    atomic
        anisotropic                    false
      * Halogen bond correction:
        rad-scale                      1.300000
        damping                        0.440000

q/qsh data taken from xtbrestart

          ...................................................
          :                      SETUP                      :
          :.................................................:
          :  # basis functions                  56          :
          :  # atomic orbitals                  56          :
          :  # shells                           42          :
          :  # electrons                        42          :
          :  # halogen bonds                     0          :
          :  max. iterations                   250          :
          :  Hamiltonian                  GFN1-xTB          :
          :  restarted?                       true          :
          :  GBSA solvation                  false          :
          :  PC potential                    false          :
          :  electronic temp.          300.0000000     K    :
          :  accuracy                    1.0000000          :
          :  -> integral cutoff          0.2500000E+02      :
          :  -> integral neglect         0.1000000E-07      :
          :  -> SCF convergence          0.1000000E-05 Eh   :
          :  -> wf. convergence          0.2000000E-04 e    :
          :  Broyden damping             0.4000000          :
          ...................................................

 iter      E             dE          RMSdq      gap      omega  full diag
   1    -22.6913755 -0.226914E+02  0.329E-02    8.59       0.0  T
   2    -22.6913820 -0.649295E-05  0.143E-02    8.60       1.5  T
   3    -22.6913826 -0.629900E-06  0.323E-03    8.60       6.7  T
   4    -22.6913826 -0.134491E-07  0.776E-04    8.60      28.1  T
   5    -22.6913826 -0.207349E-08  0.118E-04    8.60     185.4  T
   6    -22.6913826 -0.713243E-10  0.131E-05    8.60    1669.4  T

   *** convergence criteria satisfied after 6 iterations ***

         #    Occupation            Energy/Eh            Energy/eV
      -------------------------------------------------------------
         1        2.0000           -0.6652881             -18.1034
       ...           ...                  ...                  ...
        15        2.0000           -0.4926173             -13.4048
        16        2.0000           -0.4883292             -13.2881
        17        2.0000           -0.4785901             -13.0231
        18        2.0000           -0.4750194             -12.9259
        19        2.0000           -0.4552873             -12.3890
        20        2.0000           -0.4484831             -12.2038
        21        2.0000           -0.4478110             -12.1856 (HOMO)
        22                         -0.1317381              -3.5848 (LUMO)
        23                         -0.1130294              -3.0757
        24                         -0.1120045              -3.0478
        25                         -0.1051798              -2.8621
        26                         -0.0983105              -2.6752
       ...                                ...                  ...
        56                          0.4696657              12.7803
      -------------------------------------------------------------
                  HL-Gap            0.3160729 Eh            8.6008 eV
             Fermi-level           -0.2897745 Eh           -7.8852 eV

 SCC (total)                   0 d,  0 h,  0 min,  0.011 sec
 SCC setup                      ...        0 min,  0.000 sec (  1.227%)
 Dispersion                     ...        0 min,  0.000 sec (  0.480%)
 classical contributions        ...        0 min,  0.000 sec (  0.222%)
 integral evaluation            ...        0 min,  0.001 sec ( 13.707%)
 iterations                     ...        0 min,  0.006 sec ( 50.700%)
 molecular gradient             ...        0 min,  0.004 sec ( 32.116%)
 printout                       ...        0 min,  0.000 sec (  1.490%)

         :::::::::::::::::::::::::::::::::::::::::::::::::::::
         ::                     SUMMARY                     ::
         :::::::::::::::::::::::::::::::::::::::::::::::::::::
         :: total energy             -22.388375054467 Eh    ::
         :: gradient norm              0.021465128540 Eh/a0 ::
         :: HOMO-LUMO gap              8.600780759339 eV    ::
         ::.................................................::
         :: SCC energy               -22.691382631570 Eh    ::
         :: -> electrostatic           0.000360570069 Eh    ::
         :: repulsion energy           0.312202418689 Eh    ::
         :: dispersion energy         -0.009194841587 Eh    ::
         :: halogen bond corr.         0.000000000000 Eh    ::
         :: add. restraining           0.000000000000 Eh    ::
         :: total charge              -0.000000000000 e     ::
         :::::::::::::::::::::::::::::::::::::::::::::::::::::

           -------------------------------------------------
          |                Property Printout                |
           -------------------------------------------------

    * Orbital Energies and Occupations

         #    Occupation            Energy/Eh            Energy/eV
      -------------------------------------------------------------
         1        2.0000           -0.6652881             -18.1034
       ...           ...                  ...                  ...
         9        2.0000           -0.5468072             -14.8794
        10        2.0000           -0.5422180             -14.7545
        11        2.0000           -0.5344404             -14.5429
        12        2.0000           -0.5194131             -14.1339
        13        2.0000           -0.5191748             -14.1275
        14        2.0000           -0.5037126             -13.7067
        15        2.0000           -0.4926173             -13.4048
        16        2.0000           -0.4883292             -13.2881
        17        2.0000           -0.4785901             -13.0231
        18        2.0000           -0.4750194             -12.9259
        19        2.0000           -0.4552873             -12.3890
        20        2.0000           -0.4484831             -12.2038
        21        2.0000           -0.4478110             -12.1856 (HOMO)
        22                         -0.1317381              -3.5848 (LUMO)
        23                         -0.1130294              -3.0757
        24                         -0.1120045              -3.0478
        25                         -0.1051798              -2.8621
        26                         -0.0983105              -2.6752
        27                         -0.0967397              -2.6324
        28                         -0.0766499              -2.0857
        29                         -0.0706159              -1.9216
        30                         -0.0683478              -1.8598
        31                         -0.0589174              -1.6032
        32                         -0.0403438              -1.0978
       ...                                ...                  ...
        56                          0.4696657              12.7803
      -------------------------------------------------------------
                  HL-Gap            0.3160729 Eh            8.6008 eV
             Fermi-level           -0.2897745 Eh           -7.8852 eV

  Mulliken/CM5 charges         n(s)   n(p)   n(d)
     1C    -0.00532 -0.07743   1.051  2.955  0.000
     2C    -0.05190 -0.15981   1.031  3.021  0.000
     3C    -0.05190 -0.15981   1.031  3.021  0.000
     4C    -0.04513 -0.15500   1.026  3.019  0.000
     5C    -0.04513 -0.15500   1.026  3.019  0.000
     6C    -0.04526 -0.15497   1.027  3.018  0.000
     7C    -0.09209 -0.24117   1.010  3.082  0.000
     8H     0.02000  0.07823   0.980  0.000  0.000
     9H     0.02446  0.07950   0.976  0.000  0.000
    10H     0.02345  0.07915   0.977  0.000  0.000
    11H     0.02345  0.07915   0.977  0.000  0.000
    12H     0.02446  0.07950   0.976  0.000  0.000
    13H     0.02234  0.07824   0.978  0.000  0.000
    14H     0.02349  0.07787   0.977  0.000  0.000
    15H     0.02349  0.07787   0.977  0.000  0.000
    16H     0.02234  0.07824   0.978  0.000  0.000
    17H     0.02155  0.07698   0.978  0.000  0.000
    18H     0.02347  0.07777   0.977  0.000  0.000
    19H     0.02804  0.07971   0.972  0.000  0.000
    20H     0.02804  0.07971   0.972  0.000  0.000
    21H     0.02815  0.08125   0.972  0.000  0.000

Wiberg/Mayer (AO) data.
largest (>0.10) Wiberg bond orders for each atom

 ---------------------------------------------------------------------------
     #   Z sym  total        # sym  WBO       # sym  WBO       # sym  WBO
 ---------------------------------------------------------------------------
     1   6 C    3.995 --     7 C    1.009     3 C    0.996     2 C    0.996
                             8 H    0.973
     2   6 C    3.998 --     4 C    1.007     1 C    0.996    10 H    0.978
                             9 H    0.978
     3   6 C    3.998 --     5 C    1.007     1 C    0.996    11 H    0.978
                            12 H    0.978
     4   6 C    3.998 --     6 C    1.007     2 C    1.007    14 H    0.979
                            13 H    0.978
     5   6 C    3.998 --     6 C    1.007     3 C    1.007    15 H    0.979
                            16 H    0.978
     6   6 C    3.998 --     4 C    1.007     5 C    1.007    17 H    0.979
                            18 H    0.979
     7   6 C    3.997 --     1 C    1.009    19 H    0.986    20 H    0.986
                            21 H    0.983
     8   1 H    1.008 --     1 C    0.973
     9   1 H    1.005 --     2 C    0.978
    10   1 H    1.004 --     2 C    0.978
    11   1 H    1.004 --     3 C    0.978
    12   1 H    1.005 --     3 C    0.978
    13   1 H    1.005 --     4 C    0.978
    14   1 H    1.007 --     4 C    0.979
    15   1 H    1.007 --     5 C    0.979
    16   1 H    1.005 --     5 C    0.978
    17   1 H    1.004 --     6 C    0.979
    18   1 H    1.007 --     6 C    0.979
    19   1 H    1.005 --     7 C    0.986
    20   1 H    1.005 --     7 C    0.986
    21   1 H    1.006 --     7 C    0.983
 ---------------------------------------------------------------------------

Topologies differ in total number of bonds
Writing topology from bond orders to xtbtopo.mol

 dipole moment from electron density (au)
     X       Y       Z   
   0.0068   0.0000  -0.0315  total (Debye):    0.082


           -------------------------------------------------
          | TOTAL ENERGY              -22.388375054467 Eh   |
          | GRADIENT NORM               0.021465128540 Eh/α |
          | HOMO-LUMO GAP               8.600780759339 eV   |
           -------------------------------------------------

------------------------------------------------------------------------
 * finished run on 2021/08/09 at 17:30:49.680     
------------------------------------------------------------------------
 total:
 * wall-time:     0 d,  0 h,  0 min,  0.018 sec
 *  cpu-time:     0 d,  0 h,  0 min,  0.062 sec
 * ratio c/w:     3.458 speedup
 SCF:
 * wall-time:     0 d,  0 h,  0 min,  0.011 sec
 *  cpu-time:     0 d,  0 h,  0 min,  0.038 sec
 * ratio c/w:     3.447 speedup

