      -----------------------------------------------------------      
     |                   =====================                   |     
     |                           x T B                           |     
     |                   =====================                   |     
     |                         S. Grimme                         |     
     |          Mulliken Center for Theoretical Chemistry        |     
     |                    University of Bonn                     |     
      -----------------------------------------------------------      

   * xtb version 6.4.1-2.fc34.fc34 compiled by Fedora project on Wed Jun 30 15:53:26 UTC 2021

   xtb is free software: you can redistribute it and/or modify it under
   the terms of the GNU Lesser General Public License as published by
   the Free Software Foundation, either version 3 of the License, or
   (at your option) any later version.
   
   xtb is distributed in the hope that it will be useful,
   but WITHOUT ANY WARRANTY; without even the implied warranty of
   MERCHANTABILITY or FITNESS FOR A PARTICULAR PURPOSE.  See the
   GNU Lesser General Public License for more details.
   
   Cite this work as:
   * C. Bannwarth, E. Caldeweyher, S. Ehlert, A. Hansen, P. Pracht,
     J. Seibert, S. Spicher, S. Grimme, WIREs Comput. Mol. Sci., 2020, 11,
     e01493. DOI: 10.1002/wcms.1493
   
   for GFN2-xTB:
   * C. Bannwarth, S. Ehlert and S. Grimme., J. Chem. Theory Comput., 2019,
     15, 1652-1671. DOI: 10.1021/acs.jctc.8b01176
   for GFN1-xTB:
   * S. Grimme, C. Bannwarth, P. Shushkov, J. Chem. Theory Comput., 2017,
     13, 1989-2009. DOI: 10.1021/acs.jctc.7b00118
   for GFN0-xTB:
   * P. Pracht, E. Caldeweyher, S. Ehlert, S. Grimme, ChemRxiv, 2019, preprint.
     DOI: 10.26434/chemrxiv.8326202.v1
   for GFN-FF:
   * S. Spicher and S. Grimme, Angew. Chem. Int. Ed., 2020, 59, 15665-15673.
     DOI: 10.1002/anie.202004239
   
   for DFT-D4:
   * E. Caldeweyher, C. Bannwarth and S. Grimme, J. Chem. Phys., 2017,
     147, 034112. DOI: 10.1063/1.4993215
   * E. Caldeweyher, S. Ehlert, A. Hansen, H. Neugebauer, S. Spicher,
     C. Bannwarth and S. Grimme, J. Chem. Phys., 2019, 150, 154122.
     DOI: 10.1063/1.5090222
   * E. Caldeweyher, J.-M. Mewes, S. Ehlert and S. Grimme, Phys. Chem. Chem. Phys.
     2020, 22, 8499-8512. DOI: 10.1039/D0CP00502A
   
   for sTDA-xTB:
   * S. Grimme and C. Bannwarth, J. Chem. Phys., 2016, 145, 054103.
     DOI: 10.1063/1.4959605
   
   in the mass-spec context:
   * V. Asgeirsson, C. Bauer and S. Grimme, Chem. Sci., 2017, 8, 4879.
     DOI: 10.1039/c7sc00601b
   * J. Koopman and S. Grimme, ACS Omega 2019, 4, 12, 15120-15133.
     DOI: 10.1021/acsomega.9b02011
   
   for metadynamics refer to:
   * S. Grimme, J. Chem. Theory Comput., 2019, 155, 2847-2862
     DOI: 10.1021/acs.jctc.9b00143
   
   for SPH calculations refer to:
   * S. Spicher and S. Grimme, J. Chem. Theory Comput., 2021, 17, 1701-1714
     DOI: 10.1021/acs.jctc.0c01306
   
   with help from (in alphabetical order)
   P. Atkinson, C. Bannwarth, F. Bohle, G. Brandenburg, E. Caldeweyher
   M. Checinski, S. Dohm, S. Ehlert, S. Ehrlich, I. Gerasimov, J. Koopman
   C. Lavigne, S. Lehtola, F. März, M. Müller, F. Musil, H. Neugebauer
   J. Pisarek, C. Plett, P. Pracht, J. Seibert, P. Shushkov, S. Spicher
   M. Stahn, M. Steiner, T. Strunk, J. Stückrath, T. Rose, and J. Unsleber
   
 * started run on 2021/08/09 at 17:30:49.771     

           -------------------------------------------------
          |                Calculation Setup                |
           -------------------------------------------------

          program call               : xtb -gfn 1 conformer6.xyz
          hostname                   : thinkpad
          coordinate file            : conformer6.xyz
          omp threads                :                     4
          number of atoms            :                    21
          number of electrons        :                    42
          charge                     :                     0
          spin                       :                   0.0
          first test random number   :      0.32515416291558

   ID    Z sym.   atoms
    1    6 C      1-7
    2    1 H      8-21
########################################################################
[WARNING] Please study the warnings concerning your input carefully
-1- prog_main_parseArguments: the use of '-gfn' is discouraged, please use '--gfn' next time
########################################################################

           -------------------------------------------------
          |                 G F N 1 - x T B                 |
           -------------------------------------------------

        Reference                      10.1021/acs.jctc.7b00118
      * Hamiltonian:
        H0-scaling (s, p, d)           1.850000    2.250000    2.000000
        zeta-weighting                 0.000000
      * Dispersion:
        s8                             2.400000
        a1                             0.630000
        a2                             5.000000
        s9                             0.000000
      * Repulsion:
        kExp                           1.500000
        rExp                           1.000000
      * Coulomb:
        alpha                          2.000000
        third order                    atomic
        anisotropic                    false
      * Halogen bond correction:
        rad-scale                      1.300000
        damping                        0.440000

q/qsh data taken from xtbrestart

          ...................................................
          :                      SETUP                      :
          :.................................................:
          :  # basis functions                  56          :
          :  # atomic orbitals                  56          :
          :  # shells                           42          :
          :  # electrons                        42          :
          :  # halogen bonds                     0          :
          :  max. iterations                   250          :
          :  Hamiltonian                  GFN1-xTB          :
          :  restarted?                       true          :
          :  GBSA solvation                  false          :
          :  PC potential                    false          :
          :  electronic temp.          300.0000000     K    :
          :  accuracy                    1.0000000          :
          :  -> integral cutoff          0.2500000E+02      :
          :  -> integral neglect         0.1000000E-07      :
          :  -> SCF convergence          0.1000000E-05 Eh   :
          :  -> wf. convergence          0.2000000E-04 e    :
          :  Broyden damping             0.4000000          :
          ...................................................

 iter      E             dE          RMSdq      gap      omega  full diag
   1    -22.6852680 -0.226853E+02  0.243E-02    8.59       0.0  T
   2    -22.6852752 -0.716005E-05  0.111E-02    8.59       2.0  T
   3    -22.6852756 -0.355458E-06  0.564E-03    8.59       3.9  T
   4    -22.6852756 -0.256897E-07  0.871E-04    8.60      25.1  T
   5    -22.6852756 -0.182770E-08  0.166E-04    8.60     131.8  T
   6    -22.6852756 -0.955183E-10  0.238E-05    8.60     917.8  T

   *** convergence criteria satisfied after 6 iterations ***

         #    Occupation            Energy/Eh            Energy/eV
      -------------------------------------------------------------
         1        2.0000           -0.6652352             -18.1020
       ...           ...                  ...                  ...
        15        2.0000           -0.4918436             -13.3837
        16        2.0000           -0.4890124             -13.3067
        17        2.0000           -0.4856910             -13.2163
        18        2.0000           -0.4771419             -12.9837
        19        2.0000           -0.4521666             -12.3041
        20        2.0000           -0.4494381             -12.2298
        21        2.0000           -0.4470598             -12.1651 (HOMO)
        22                         -0.1311785              -3.5695 (LUMO)
        23                         -0.1161319              -3.1601
        24                         -0.1106002              -3.0096
        25                         -0.1059321              -2.8826
        26                         -0.0979252              -2.6647
       ...                                ...                  ...
        56                          0.4691883              12.7673
      -------------------------------------------------------------
                  HL-Gap            0.3158812 Eh            8.5956 eV
             Fermi-level           -0.2891191 Eh           -7.8673 eV

 SCC (total)                   0 d,  0 h,  0 min,  0.011 sec
 SCC setup                      ...        0 min,  0.000 sec (  1.110%)
 Dispersion                     ...        0 min,  0.000 sec (  0.517%)
 classical contributions        ...        0 min,  0.000 sec (  0.226%)
 integral evaluation            ...        0 min,  0.001 sec ( 13.408%)
 iterations                     ...        0 min,  0.006 sec ( 50.918%)
 molecular gradient             ...        0 min,  0.004 sec ( 32.152%)
 printout                       ...        0 min,  0.000 sec (  1.606%)

         :::::::::::::::::::::::::::::::::::::::::::::::::::::
         ::                     SUMMARY                     ::
         :::::::::::::::::::::::::::::::::::::::::::::::::::::
         :: total energy             -22.383399840127 Eh    ::
         :: gradient norm              0.021134069339 Eh/a0 ::
         :: HOMO-LUMO gap              8.595565768693 eV    ::
         ::.................................................::
         :: SCC energy               -22.685275580017 Eh    ::
         :: -> electrostatic           0.000337060221 Eh    ::
         :: repulsion energy           0.310910504468 Eh    ::
         :: dispersion energy         -0.009034764579 Eh    ::
         :: halogen bond corr.         0.000000000000 Eh    ::
         :: add. restraining           0.000000000000 Eh    ::
         :: total charge              -0.000000000000 e     ::
         :::::::::::::::::::::::::::::::::::::::::::::::::::::

           -------------------------------------------------
          |                Property Printout                |
           -------------------------------------------------

    * Orbital Energies and Occupations

         #    Occupation            Energy/Eh            Energy/eV
      -------------------------------------------------------------
         1        2.0000           -0.6652352             -18.1020
       ...           ...                  ...                  ...
         9        2.0000           -0.5610077             -15.2658
        10        2.0000           -0.5416510             -14.7391
        11        2.0000           -0.5267904             -14.3347
        12        2.0000           -0.5173976             -14.0791
        13        2.0000           -0.5118695             -13.9287
        14        2.0000           -0.5024844             -13.6733
        15        2.0000           -0.4918436             -13.3837
        16        2.0000           -0.4890124             -13.3067
        17        2.0000           -0.4856910             -13.2163
        18        2.0000           -0.4771419             -12.9837
        19        2.0000           -0.4521666             -12.3041
        20        2.0000           -0.4494381             -12.2298
        21        2.0000           -0.4470598             -12.1651 (HOMO)
        22                         -0.1311785              -3.5695 (LUMO)
        23                         -0.1161319              -3.1601
        24                         -0.1106002              -3.0096
        25                         -0.1059321              -2.8826
        26                         -0.0979252              -2.6647
        27                         -0.0902159              -2.4549
        28                         -0.0793375              -2.1589
        29                         -0.0740725              -2.0156
        30                         -0.0700180              -1.9053
        31                         -0.0540961              -1.4720
        32                         -0.0414061              -1.1267
       ...                                ...                  ...
        56                          0.4691883              12.7673
      -------------------------------------------------------------
                  HL-Gap            0.3158812 Eh            8.5956 eV
             Fermi-level           -0.2891191 Eh           -7.8673 eV

  Mulliken/CM5 charges         n(s)   n(p)   n(d)
     1C    -0.00677 -0.07897   1.053  2.954  0.000
     2C    -0.05158 -0.15963   1.031  3.020  0.000
     3C    -0.05275 -0.16078   1.031  3.021  0.000
     4C    -0.04426 -0.15397   1.027  3.017  0.000
     5C    -0.04477 -0.15465   1.027  3.018  0.000
     6C    -0.04778 -0.15766   1.030  3.018  0.000
     7C    -0.08972 -0.23874   1.012  3.078  0.000
     8H     0.01882  0.07724   0.981  0.000  0.000
     9H     0.02373  0.08063   0.976  0.000  0.000
    10H     0.02375  0.07856   0.976  0.000  0.000
    11H     0.02403  0.07997   0.976  0.000  0.000
    12H     0.02528  0.08072   0.975  0.000  0.000
    13H     0.02417  0.07852   0.976  0.000  0.000
    14H     0.02252  0.07831   0.977  0.000  0.000
    15H     0.02377  0.07814   0.976  0.000  0.000
    16H     0.02276  0.07892   0.977  0.000  0.000
    17H     0.02274  0.07735   0.977  0.000  0.000
    18H     0.02289  0.07747   0.977  0.000  0.000
    19H     0.02840  0.08003   0.972  0.000  0.000
    20H     0.02791  0.07944   0.972  0.000  0.000
    21H     0.02684  0.07910   0.973  0.000  0.000

Wiberg/Mayer (AO) data.
largest (>0.10) Wiberg bond orders for each atom

 ---------------------------------------------------------------------------
     #   Z sym  total        # sym  WBO       # sym  WBO       # sym  WBO
 ---------------------------------------------------------------------------
     1   6 C    3.995 --     7 C    1.011     2 C    0.995     3 C    0.992
                             8 H    0.975
     2   6 C    3.998 --     4 C    1.008     1 C    0.995    10 H    0.979
                             9 H    0.978
     3   6 C    3.998 --     5 C    1.009     1 C    0.992    11 H    0.979
                            12 H    0.978
     4   6 C    3.998 --     2 C    1.008     6 C    1.003    14 H    0.980
                            13 H    0.979
     5   6 C    3.998 --     3 C    1.009     6 C    1.004    15 H    0.979
                            16 H    0.979
     6   6 C    3.998 --     5 C    1.004     4 C    1.003    17 H    0.981
                            18 H    0.981
     7   6 C    3.997 --     1 C    1.011    21 H    0.986    19 H    0.986
                            20 H    0.985
     8   1 H    1.008 --     1 C    0.975
     9   1 H    1.003 --     2 C    0.978
    10   1 H    1.007 --     2 C    0.979
    11   1 H    1.005 --     3 C    0.979
    12   1 H    1.006 --     3 C    0.978
    13   1 H    1.007 --     4 C    0.979
    14   1 H    1.005 --     4 C    0.980
    15   1 H    1.007 --     5 C    0.979
    16   1 H    1.006 --     5 C    0.979
    17   1 H    1.007 --     6 C    0.981
    18   1 H    1.007 --     6 C    0.981
    19   1 H    1.004 --     7 C    0.986
    20   1 H    1.006 --     7 C    0.985
    21   1 H    1.004 --     7 C    0.986
 ---------------------------------------------------------------------------

Topologies differ in total number of bonds
Writing topology from bond orders to xtbtopo.mol

 dipole moment from electron density (au)
     X       Y       Z   
   0.0020  -0.0034  -0.0084  total (Debye):    0.023


           -------------------------------------------------
          | TOTAL ENERGY              -22.383399840127 Eh   |
          | GRADIENT NORM               0.021134069339 Eh/α |
          | HOMO-LUMO GAP               8.595565768693 eV   |
           -------------------------------------------------

------------------------------------------------------------------------
 * finished run on 2021/08/09 at 17:30:49.788     
------------------------------------------------------------------------
 total:
 * wall-time:     0 d,  0 h,  0 min,  0.017 sec
 *  cpu-time:     0 d,  0 h,  0 min,  0.061 sec
 * ratio c/w:     3.545 speedup
 SCF:
 * wall-time:     0 d,  0 h,  0 min,  0.011 sec
 *  cpu-time:     0 d,  0 h,  0 min,  0.038 sec
 * ratio c/w:     3.379 speedup

