
    -----------------------------------------------------------------------
          Psi4: An Open-Source Ab Initio Electronic Structure Package
                               Psi4 1.3.2 release

                         Git: Rev {} zzzzzzz 


    R. M. Parrish, L. A. Burns, D. G. A. Smith, A. C. Simmonett,
    A. E. DePrince III, E. G. Hohenstein, U. Bozkaya, A. Yu. Sokolov,
    R. Di Remigio, R. M. Richard, J. F. Gonthier, A. M. James,
    H. R. McAlexander, A. Kumar, M. Saitow, X. Wang, B. P. Pritchard,
    P. Verma, H. F. Schaefer III, K. Patkowski, R. A. King, E. F. Valeev,
    F. A. Evangelista, J. M. Turney, T. D. Crawford, and C. D. Sherrill,
    J. Chem. Theory Comput. 13(7) pp 3185--3197 (2017).
    (doi: 10.1021/acs.jctc.7b00174)


                         Additional Contributions by
    P. Kraus, H. Kruse, M. H. Lechner, M. C. Schieber, R. A. Shaw,
    A. Alenaizan, R. Galvelis, Z. L. Glick, S. Lehtola, and J. P. Misiewicz

    -----------------------------------------------------------------------


    Psi4 started on: Tuesday, 18 January 2022 09:23PM

    Process ID: 808084
    Host:       lenovo
    PSIDATADIR: /usr/share/psi4
    Memory:     500.0 MiB
    Threads:    4
    
  ==> Input File <==

--------------------------------------------------------------------------
memory 8 gb

molecule {
0 1
 C         -1.1122489933        0.0000218520       -0.5145028626
 C         -0.2381762340        1.2535580831       -0.6292216260
 C         -0.2383878558       -1.2536845533       -0.6291281493
 C          0.9168555920        1.2517068211        0.3683094805
 C          0.9170256308       -1.2518884771        0.3680177133
 C          1.7706256887        0.0000071118        0.1948357043
 C         -1.9518436195        0.0002668996        0.7616216833
 H         -1.8103144381        0.0000432832       -1.3613412862
 H         -0.8539509457        2.1435680290       -0.4808316759
 H          0.1737815084        1.3007148165       -1.6406897583
 H          0.1732637362       -1.3011410859       -1.6407262950
 H         -0.8542542920       -2.1435882868       -0.4803514974
 H          0.5290794965        1.2902781537        1.3876858273
 H          1.5293297962        2.1434734060        0.2157452721
 H          1.5296237794       -2.1434327229        0.2147174168
 H          0.5297227508       -1.2910837285        1.3875328835
 H          2.2126467235        0.0001666761       -0.8047182668
 H          2.5863759409       -0.0000177217        0.9213445341
 H         -1.3291329301       -0.0002933503        1.6510282680
 H         -2.5878337518        0.8826358371        0.7925273377
 H         -2.5892311721       -0.8811771712        0.7922368082
}

set basis def2-tzvp
optimize('pbe0')
--------------------------------------------------------------------------

  Memory set to   7.451 GiB by Python driver.
gradient() will perform analytic gradient computation.

*** tstart() called on lenovo
*** at Tue Jan 18 21:23:21 2022

   => Loading Basis Set <=

    Name: DEF2-TZVP
    Role: ORBITAL
    Keyword: BASIS
    atoms 1-7  entry C          line   123 file /usr/share/psi4/basis/def2-tzvp.gbs 
    atoms 8-21 entry H          line    15 file /usr/share/psi4/basis/def2-tzvp.gbs 


         ---------------------------------------------------------
                                   SCF
               by Justin Turney, Rob Parrish, Andy Simmonett
                          and Daniel G. A. Smith
                              RKS Reference
                        4 Threads,   7629 MiB Core
         ---------------------------------------------------------

  ==> Geometry <==

    Molecular point group: c1
    Full point group: C1

    Geometry (in Angstrom), charge = 0, multiplicity = 1:

       Center              X                  Y                   Z               Mass       
    ------------   -----------------  -----------------  -----------------  -----------------
         C           -1.112242415861     0.000021850734    -0.514511110721    12.000000000000
         C           -0.238169656561     1.253558081834    -0.629229874121    12.000000000000
         C           -0.238381278361    -1.253684554566    -0.629136397421    12.000000000000
         C            0.916862169439     1.251706819834     0.368301232379    12.000000000000
         C            0.917032208239    -1.251888478366     0.368009465179    12.000000000000
         C            1.770632266139     0.000007110534     0.194827456179    12.000000000000
         C           -1.951837042061     0.000266898334     0.761613435179    12.000000000000
         H           -1.810307860661     0.000043281934    -1.361349534321     1.007825032230
         H           -0.853944368261     2.143568027734    -0.480839924021     1.007825032230
         H            0.173788085839     1.300714815234    -1.640698006421     1.007825032230
         H            0.173270313639    -1.301141087166    -1.640734543121     1.007825032230
         H           -0.854247714561    -2.143588288066    -0.480359745521     1.007825032230
         H            0.529086073939     1.290278152434     1.387677579179     1.007825032230
         H            1.529336373639     2.143473404734     0.215737023979     1.007825032230
         H            1.529630356839    -2.143432724166     0.214709168679     1.007825032230
         H            0.529729328239    -1.291083729766     1.387524635379     1.007825032230
         H            2.212653300939     0.000166674834    -0.804726514921     1.007825032230
         H            2.586382518339    -0.000017722966     0.921336285979     1.007825032230
         H           -1.329126352661    -0.000293351566     1.651020019879     1.007825032230
         H           -2.587827174361     0.882635835834     0.792519089579     1.007825032230
         H           -2.589224594661    -0.881177172466     0.792228560079     1.007825032230

  Running in c1 symmetry.

  Rotational constants: A =      0.11818  B =      0.08540  C =      0.06506 [cm^-1]
  Rotational constants: A =   3542.84530  B =   2560.15465  C =   1950.34020 [MHz]
  Nuclear repulsion =  334.580250859870262

  Charge       = 0
  Multiplicity = 1
  Electrons    = 56
  Nalpha       = 28
  Nbeta        = 28

  ==> Algorithm <==

  SCF Algorithm Type is DF.
  DIIS enabled.
  MOM disabled.
  Fractional occupation disabled.
  Guess Type is SAD.
  Energy threshold   = 1.00e-08
  Density threshold  = 1.00e-08
  Integral threshold = 0.00e+00

  ==> Primary Basis <==

  Basis Set: DEF2-TZVP
    Blend: DEF2-TZVP
    Number of shells: 133
    Number of basis function: 301
    Number of Cartesian functions: 336
    Spherical Harmonics?: true
    Max angular momentum: 3

  ==> DFT Potential <==

   => Composite Functional: PBE0 <= 

    PBE0 Hyb-GGA Exchange-Correlation Functional

    C. Adamo and V. Barone, J. Chem. Phys. 110, 6158 (1999)
    M. Ernzerhof and G. E. Scuseria, J. Chem. Phys. 110, 5029 (1999)

    Deriv               =              1
    GGA                 =           TRUE
    Meta                =          FALSE

    Exchange Hybrid     =           TRUE
    MP2 Hybrid          =          FALSE

   => Exchange Functionals <=

    0.7500   Perdew, Burke & Ernzerhof

   => Exact (HF) Exchange <=

    0.2500               HF 

   => Correlation Functionals <=

    1.0000   Perdew, Burke & Ernzerhof

   => Molecular Quadrature <=

    Radial Scheme          =       TREUTLER
    Pruning Scheme         =           FLAT
    Nuclear Scheme         =       TREUTLER

    BS radius alpha        =              1
    Pruning alpha          =              1
    Radial Points          =             75
    Spherical Points       =            302
    Total Points           =         472035
    Total Blocks           =           3439
    Max Points             =            256
    Max Functions          =            292

   => Loading Basis Set <=

    Name: (DEF2-TZVP AUX)
    Role: JKFIT
    Keyword: DF_BASIS_SCF
    atoms 1-7  entry C          line   203 file /usr/share/psi4/basis/def2-tzvp-jkfit.gbs 
    atoms 8-21 entry H          line    23 file /usr/share/psi4/basis/def2-tzvp-jkfit.gbs 

  ==> Pre-Iterations <==

   -------------------------------------------------------
    Irrep   Nso     Nmo     Nalpha   Nbeta   Ndocc  Nsocc
   -------------------------------------------------------
     A        301     301       0       0       0       0
   -------------------------------------------------------
    Total     301     301      28      28      28       0
   -------------------------------------------------------

  ==> Integral Setup <==

  DFHelper Memory: AOs need 0.540 GiB; user supplied 2.561 GiB. Using in-core AOs.

  ==> MemDFJK: Density-Fitted J/K Matrices <==

    J tasked:                   Yes
    K tasked:                   Yes
    wK tasked:                   No
    OpenMP threads:               4
    Memory [MiB]:              2622
    Algorithm:                 Core
    Schwarz Cutoff:           1E-12
    Mask sparsity (%):       1.8521
    Fitting Condition:        1E-10

   => Auxiliary Basis Set <=

  Basis Set: (DEF2-TZVP AUX)
    Blend: DEF2-TZVP-JKFIT
    Number of shells: 259
    Number of basis function: 777
    Number of Cartesian functions: 903
    Spherical Harmonics?: true
    Max angular momentum: 4

  Cached 100.0% of DFT collocation blocks in 3.027 [GiB].

  Minimum eigenvalue in the overlap matrix is 9.4428218550E-05.
  Using Symmetric Orthogonalization.

  SCF Guess: Superposition of Atomic Densities via on-the-fly atomic UHF.

  ==> Iterations <==

                           Total Energy        Delta E     RMS |[F,P]|

   @DF-RKS iter SAD:  -274.63010009081188   -2.74630e+02   0.00000e+00 
   @DF-RKS iter   1:  -274.13477579996146    4.95324e-01   4.14363e-03 DIIS
   @DF-RKS iter   2:  -273.28623981416581    8.48536e-01   5.89133e-03 DIIS
   @DF-RKS iter   3:  -274.92970171133987   -1.64346e+00   5.74791e-04 DIIS
   @DF-RKS iter   4:  -274.94115780694432   -1.14561e-02   2.41473e-04 DIIS
   @DF-RKS iter   5:  -274.94345745422936   -2.29965e-03   6.28917e-05 DIIS
   @DF-RKS iter   6:  -274.94362005541041   -1.62601e-04   9.71642e-06 DIIS
   @DF-RKS iter   7:  -274.94362418676650   -4.13136e-06   3.34443e-06 DIIS
   @DF-RKS iter   8:  -274.94362469489670   -5.08130e-07   6.82941e-07 DIIS
   @DF-RKS iter   9:  -274.94362471396289   -1.90662e-08   1.88197e-07 DIIS
   @DF-RKS iter  10:  -274.94362471556627   -1.60338e-09   4.12806e-08 DIIS
   @DF-RKS iter  11:  -274.94362471564040   -7.41238e-11   1.20432e-08 DIIS
   @DF-RKS iter  12:  -274.94362471564523   -4.83169e-12   3.72635e-09 DIIS
  Energy and wave function converged.


  ==> Post-Iterations <==

    Orbital Energies [Eh]
    ---------------------

    Doubly Occupied:                                                      

       1A    -10.216634     2A    -10.207639     3A    -10.207413  
       4A    -10.207283     5A    -10.206774     6A    -10.206757  
       7A    -10.200647     8A     -0.860061     9A     -0.781104  
      10A     -0.759868    11A     -0.695722    12A     -0.621616  
      13A     -0.609539    14A     -0.543469    15A     -0.498086  
      16A     -0.461195    17A     -0.458460    18A     -0.438259  
      19A     -0.412637    20A     -0.410414    21A     -0.383863  
      22A     -0.367627    23A     -0.365059    24A     -0.346141  
      25A     -0.343049    26A     -0.317492    27A     -0.300000  
      28A     -0.299309  

    Virtual:                                                              

      29A      0.039564    30A      0.059842    31A      0.073884  
      32A      0.081961    33A      0.101525    34A      0.102852  
      35A      0.107986    36A      0.120175    37A      0.122168  
      38A      0.124969    39A      0.140346    40A      0.147787  
      41A      0.167704    42A      0.171294    43A      0.173976  
      44A      0.199850    45A      0.200366    46A      0.223705  
      47A      0.224230    48A      0.229558    49A      0.239297  
      50A      0.244720    51A      0.254807    52A      0.257737  
      53A      0.275226    54A      0.280300    55A      0.297356  
      56A      0.305925    57A      0.327373    58A      0.334405  
      59A      0.374062    60A      0.404913    61A      0.405679  
      62A      0.413208    63A      0.417958    64A      0.423965  
      65A      0.435158    66A      0.436343    67A      0.443390  
      68A      0.451966    69A      0.455351    70A      0.461543  
      71A      0.463785    72A      0.473336    73A      0.475287  
      74A      0.481762    75A      0.481915    76A      0.501199  
      77A      0.501776    78A      0.509205    79A      0.515404  
      80A      0.522972    81A      0.525653    82A      0.542661  
      83A      0.592907    84A      0.617407    85A      0.637238  
      86A      0.656025    87A      0.668784    88A      0.734056  
      89A      0.748667    90A      0.766544    91A      0.768055  
      92A      0.781780    93A      0.791263    94A      0.808284  
      95A      0.827960    96A      0.853154    97A      0.853798  
      98A      0.890356    99A      0.914447   100A      0.921708  
     101A      0.935851   102A      0.952686   103A      0.969611  
     104A      1.009181   105A      1.027619   106A      1.045304  
     107A      1.049461   108A      1.060071   109A      1.124022  
     110A      1.124521   111A      1.140927   112A      1.166454  
     113A      1.176625   114A      1.187223   115A      1.187532  
     116A      1.201829   117A      1.248310   118A      1.258036  
     119A      1.262567   120A      1.276667   121A      1.300011  
     122A      1.313840   123A      1.315164   124A      1.329786  
     125A      1.427870   126A      1.430104   127A      1.492268  
     128A      1.540685   129A      1.551728   130A      1.569118  
     131A      1.587920   132A      1.594349   133A      1.610230  
     134A      1.619402   135A      1.638130   136A      1.638277  
     137A      1.652282   138A      1.657401   139A      1.673984  
     140A      1.688596   141A      1.699408   142A      1.722937  
     143A      1.749318   144A      1.756894   145A      1.786686  
     146A      1.799537   147A      1.839436   148A      1.845564  
     149A      1.882566   150A      1.892161   151A      1.907961  
     152A      1.912469   153A      1.940802   154A      1.976665  
     155A      2.002977   156A      2.010988   157A      2.021033  
     158A      2.055942   159A      2.090885   160A      2.130370  
     161A      2.145818   162A      2.146868   163A      2.178462  
     164A      2.182445   165A      2.213182   166A      2.244748  
     167A      2.260785   168A      2.274450   169A      2.311855  
     170A      2.344095   171A      2.354993   172A      2.378858  
     173A      2.427847   174A      2.429165   175A      2.431494  
     176A      2.459970   177A      2.470776   178A      2.505421  
     179A      2.523662   180A      2.542163   181A      2.544728  
     182A      2.549377   183A      2.561266   184A      2.587527  
     185A      2.606073   186A      2.621447   187A      2.626049  
     188A      2.639240   189A      2.643617   190A      2.654431  
     191A      2.668588   192A      2.674519   193A      2.683498  
     194A      2.698399   195A      2.719736   196A      2.734400  
     197A      2.765636   198A      2.777397   199A      2.795943  
     200A      2.796212   201A      2.824687   202A      2.839068  
     203A      2.860518   204A      2.862957   205A      2.876640  
     206A      2.882796   207A      2.913467   208A      2.955695  
     209A      2.972730   210A      2.979466   211A      3.021683  
     212A      3.057007   213A      3.057503   214A      3.092871  
     215A      3.100752   216A      3.141995   217A      3.149864  
     218A      3.160234   219A      3.189139   220A      3.203110  
     221A      3.222108   222A      3.231538   223A      3.262176  
     224A      3.291830   225A      3.293883   226A      3.307239  
     227A      3.307806   228A      3.335853   229A      3.367497  
     230A      3.372866   231A      3.389420   232A      3.420786  
     233A      3.424046   234A      3.435218   235A      3.442573  
     236A      3.475105   237A      3.487301   238A      3.514841  
     239A      3.519814   240A      3.526777   241A      3.534773  
     242A      3.566025   243A      3.596717   244A      3.599878  
     245A      3.608862   246A      3.618500   247A      3.621287  
     248A      3.648674   249A      3.680886   250A      3.693423  
     251A      3.695285   252A      3.771118   253A      3.787768  
     254A      3.842323   255A      3.903041   256A      3.924101  
     257A      3.952695   258A      3.993355   259A      4.002511  
     260A      4.031548   261A      4.063547   262A      4.073703  
     263A      4.084083   264A      4.084474   265A      4.113900  
     266A      4.134571   267A      4.162783   268A      4.195287  
     269A      4.203909   270A      4.247307   271A      4.289517  
     272A      4.294939   273A      4.316775   274A      4.385246  
     275A      4.410357   276A      4.443713   277A      4.449814  
     278A      4.479384   279A      4.524907   280A      4.539047  
     281A      4.579938   282A      4.640635   283A      4.659483  
     284A      4.712920   285A      4.774284   286A      4.784767  
     287A      4.858888   288A      4.867946   289A      4.913369  
     290A      4.936638   291A      5.019450   292A      5.065530  
     293A      5.101390   294A      5.102762   295A     22.510214  
     296A     22.543171   297A     22.586365   298A     22.619429  
     299A     22.658566   300A     22.723638   301A     22.754056  

    Final Occupation by Irrep:
              A 
    DOCC [    28 ]

  @DF-RKS Final Energy:  -274.94362471564523

   => Energetics <=

    Nuclear Repulsion Energy =            334.5802508598702616
    One-Electron Energy =               -1032.2567265416139435
    Two-Electron Energy =                 455.4120025293895537
    DFT Exchange-Correlation Energy =     -32.6791515632911214
    Empirical Dispersion Energy =           0.0000000000000000
    VV10 Nonlocal Energy =                  0.0000000000000000
    Total Energy =                       -274.9436247156452282

Computation Completed


Properties will be evaluated at   0.000000,   0.000000,   0.000000 [a0]

Properties computed using the SCF density matrix

  Nuclear Dipole Moment: [e a0]
     X:    -0.7132      Y:     0.0001      Z:     0.8944

  Electronic Dipole Moment: [e a0]
     X:     0.7152      Y:    -0.0001      Z:    -0.9234

  Dipole Moment: [e a0]
     X:     0.0019      Y:    -0.0000      Z:    -0.0290     Total:     0.0291

  Dipole Moment: [D]
     X:     0.0049      Y:    -0.0000      Z:    -0.0737     Total:     0.0739


*** tstop() called on lenovo at Tue Jan 18 21:24:07 2022
Module time:
	user time   =     159.77 seconds =       2.66 minutes
	system time =       2.72 seconds =       0.05 minutes
	total time  =         46 seconds =       0.77 minutes
Total time:
	user time   =     159.77 seconds =       2.66 minutes
	system time =       2.72 seconds =       0.05 minutes
	total time  =         46 seconds =       0.77 minutes

*** tstart() called on lenovo
*** at Tue Jan 18 21:24:07 2022


         ------------------------------------------------------------
                                   SCF GRAD                          
                          Rob Parrish, Justin Turney,                
                       Andy Simmonett, and Alex Sokolov              
         ------------------------------------------------------------

  ==> Geometry <==

    Molecular point group: c1
    Full point group: C1

    Geometry (in Angstrom), charge = 0, multiplicity = 1:

       Center              X                  Y                   Z               Mass       
    ------------   -----------------  -----------------  -----------------  -----------------
         C           -1.112242415861     0.000021850734    -0.514511110721    12.000000000000
         C           -0.238169656561     1.253558081834    -0.629229874121    12.000000000000
         C           -0.238381278361    -1.253684554566    -0.629136397421    12.000000000000
         C            0.916862169439     1.251706819834     0.368301232379    12.000000000000
         C            0.917032208239    -1.251888478366     0.368009465179    12.000000000000
         C            1.770632266139     0.000007110534     0.194827456179    12.000000000000
         C           -1.951837042061     0.000266898334     0.761613435179    12.000000000000
         H           -1.810307860661     0.000043281934    -1.361349534321     1.007825032230
         H           -0.853944368261     2.143568027734    -0.480839924021     1.007825032230
         H            0.173788085839     1.300714815234    -1.640698006421     1.007825032230
         H            0.173270313639    -1.301141087166    -1.640734543121     1.007825032230
         H           -0.854247714561    -2.143588288066    -0.480359745521     1.007825032230
         H            0.529086073939     1.290278152434     1.387677579179     1.007825032230
         H            1.529336373639     2.143473404734     0.215737023979     1.007825032230
         H            1.529630356839    -2.143432724166     0.214709168679     1.007825032230
         H            0.529729328239    -1.291083729766     1.387524635379     1.007825032230
         H            2.212653300939     0.000166674834    -0.804726514921     1.007825032230
         H            2.586382518339    -0.000017722966     0.921336285979     1.007825032230
         H           -1.329126352661    -0.000293351566     1.651020019879     1.007825032230
         H           -2.587827174361     0.882635835834     0.792519089579     1.007825032230
         H           -2.589224594661    -0.881177172466     0.792228560079     1.007825032230

  Nuclear repulsion =  334.580250859870262

  ==> Basis Set <==

  Basis Set: DEF2-TZVP
    Blend: DEF2-TZVP
    Number of shells: 133
    Number of basis function: 301
    Number of Cartesian functions: 336
    Spherical Harmonics?: true
    Max angular momentum: 3

  ==> DFJKGrad: Density-Fitted SCF Gradients <==

    Gradient:                    1
    J tasked:                  Yes
    K tasked:                  Yes
    wK tasked:                  No
    OpenMP threads:              4
    Integrals threads:           4
    Memory [MiB]:             5722
    Schwarz Cutoff:          0E+00
    Fitting Condition:       1E-10

   => Auxiliary Basis Set <=

  Basis Set: (DEF2-TZVP AUX)
    Blend: DEF2-TZVP-JKFIT
    Number of shells: 259
    Number of basis function: 777
    Number of Cartesian functions: 903
    Spherical Harmonics?: true
    Max angular momentum: 4

  ==> DFT Potential <==

   => Composite Functional: PBE0 <= 

    PBE0 Hyb-GGA Exchange-Correlation Functional

    C. Adamo and V. Barone, J. Chem. Phys. 110, 6158 (1999)
    M. Ernzerhof and G. E. Scuseria, J. Chem. Phys. 110, 5029 (1999)

    Deriv               =              1
    GGA                 =           TRUE
    Meta                =          FALSE

    Exchange Hybrid     =           TRUE
    MP2 Hybrid          =          FALSE

   => Exchange Functionals <=

    0.7500   Perdew, Burke & Ernzerhof

   => Exact (HF) Exchange <=

    0.2500               HF 

   => Correlation Functionals <=

    1.0000   Perdew, Burke & Ernzerhof

   => Molecular Quadrature <=

    Radial Scheme          =       TREUTLER
    Pruning Scheme         =           FLAT
    Nuclear Scheme         =       TREUTLER

    BS radius alpha        =              1
    Pruning alpha          =              1
    Radial Points          =             75
    Spherical Points       =            302
    Total Points           =         472035
    Total Blocks           =           3439
    Max Points             =            256
    Max Functions          =            292


  -Total Gradient:
     Atom            X                  Y                   Z
    ------   -----------------  -----------------  -----------------
       1       -0.000463035810     0.000006077929    -0.000100613369
       2        0.001217639048     0.002521205458    -0.004884400061
       3        0.001207811651    -0.002526538216    -0.004879427629
       4       -0.001899509393     0.002035414136     0.007690366604
       5       -0.001902250902    -0.002040373043     0.007704243898
       6        0.005232696459     0.000006773280    -0.006960650031
       7       -0.002995943800     0.000021721309     0.007436698093
       8       -0.000347461676    -0.000000674298    -0.000345885358
       9        0.000897108342    -0.001769359368     0.001583989138
      10       -0.000380549145    -0.001362074606     0.001968800417
      11       -0.000373122265     0.001360004884     0.001958310822
      12        0.000889238110     0.001761368017     0.001585084661
      13       -0.000212741394    -0.001203981184    -0.002516254733
      14       -0.000048553702    -0.001575177696    -0.001598325771
      15       -0.000051575103     0.001585998592    -0.001607090062
      16       -0.000203624363     0.001197013073    -0.002522865152
      17       -0.002064383945    -0.000000695202     0.001654893071
      18       -0.002203613396     0.000004367249     0.000572281343
      19       -0.000747255855     0.000008212596    -0.004054037203
      20        0.002243553315    -0.002303476576    -0.001368813895
      21        0.002208133516     0.002274100866    -0.001362157365


*** tstop() called on lenovo at Tue Jan 18 21:24:21 2022
Module time:
	user time   =      49.65 seconds =       0.83 minutes
	system time =       0.66 seconds =       0.01 minutes
	total time  =         14 seconds =       0.23 minutes
Total time:
	user time   =     209.43 seconds =       3.49 minutes
	system time =       3.38 seconds =       0.06 minutes
	total time  =         60 seconds =       1.00 minutes

			-----------------------------------------
			 OPTKING 2.0: for geometry optimizations 
			  - R.A. King,  Bethel University        
			-----------------------------------------

	Internal coordinates to be generated automatically.
	Detected frag 1 with atoms:  1 2 3 4 5 6 7 8 9 10 11 12 13 14 15 16 17 18 19 20
	 21
	---Fragment 1 Bond Connectivity---
	 1 : 2 3 7 8
	 2 : 1 4 9 10
	 3 : 1 5 11 12
	 4 : 2 6 13 14
	 5 : 3 6 15 16
	 6 : 4 5 17 18
	 7 : 1 19 20 21
	 8 : 1
	 9 : 2
	 10 : 2
	 11 : 3
	 12 : 3
	 13 : 4
	 14 : 4
	 15 : 5
	 16 : 5
	 17 : 6
	 18 : 6
	 19 : 7
	 20 : 7
	 21 : 7

	---Fragment 1 Geometry and Gradient---
	 C          -2.1018335511        0.0000412919       -0.9722850878
	 C          -0.4500754223        2.3688814570       -1.1890721320
	 C          -0.4504753295       -2.3691204558       -1.1888954867
	 C           1.7326183950        2.3653830789        0.6959884609
	 C           1.7329397218       -2.3657263637        0.6954371008
	 C           3.3460100519        0.0000134370        0.3681705339
	 C          -3.6884374510        0.0005043648        1.4392408060
	 H          -3.4209860594        0.0000817910       -2.5725777809
	 H          -1.6137209824        4.0507565037       -0.9086557666
	 H           0.3284118861        2.4579947681       -3.1004698867
	 H           0.3274334385       -2.4588003053       -3.1005389311
	 H          -1.6142942238       -4.0507947902       -0.9077483607
	 H           0.9998277765        2.4382723338        2.6223305751
	 H           2.8900268999        4.0505776921        0.4076838904
	 H           2.8905824476       -4.0505008170        0.4057415254
	 H           1.0010433510       -2.4397946543        2.6220415532
	 H           4.1813087494        0.0003149698       -1.5207127191
	 H           4.8875546153       -0.0000334916        1.7410732499
	 H          -2.5116847927       -0.0005543541        3.1199756652
	 H          -4.8902846196        1.6679399982        1.4976440285
	 H          -4.8929253612       -1.6651835240        1.4970950073
	            -0.0004630358        0.0000060779       -0.0001006134
	             0.0012176390        0.0025212055       -0.0048844001
	             0.0012078117       -0.0025265382       -0.0048794276
	            -0.0018995094        0.0020354141        0.0076903666
	            -0.0019022509       -0.0020403730        0.0077042439
	             0.0052326965        0.0000067733       -0.0069606500
	            -0.0029959438        0.0000217213        0.0074366981
	            -0.0003474617       -0.0000006743       -0.0003458854
	             0.0008971083       -0.0017693594        0.0015839891
	            -0.0003805491       -0.0013620746        0.0019688004
	            -0.0003731223        0.0013600049        0.0019583108
	             0.0008892381        0.0017613680        0.0015850847
	            -0.0002127414       -0.0012039812       -0.0025162547
	            -0.0000485537       -0.0015751777       -0.0015983258
	            -0.0000515751        0.0015859986       -0.0016070901
	            -0.0002036244        0.0011970131       -0.0025228652
	            -0.0020643839       -0.0000006952        0.0016548931
	            -0.0022036134        0.0000043672        0.0005722813
	            -0.0007472559        0.0000082126       -0.0040540372
	             0.0022435533       -0.0023034766       -0.0013688139
	             0.0022081335        0.0022741009       -0.0013621574

	Previous optimization step data not found.  Starting new optimization.

	---Fragment 1 Intrafragment Coordinates---
	 - Coordinate -           - BOHR/RAD -       - ANG/DEG -
	 R(1,2)           =         2.895981	       1.532487
	 R(1,3)           =         2.896003	       1.532499
	 R(1,7)           =         2.886654	       1.527551
	 R(1,8)           =         2.073909	       1.097466
	 R(2,4)           =         2.884028	       1.526162
	 R(2,9)           =         2.064318	       1.092390
	 R(2,10)          =         2.065775	       1.093161
	 R(3,5)           =         2.884098	       1.526199
	 R(3,11)          =         2.065809	       1.093179
	 R(3,12)          =         2.064351	       1.092408
	 R(4,6)           =         2.881921	       1.525047
	 R(4,13)          =         2.062302	       1.091323
	 R(4,14)          =         2.064605	       1.092542
	 R(5,6)           =         2.881983	       1.525080
	 R(5,15)          =         2.064588	       1.092533
	 R(5,16)          =         2.062271	       1.091307
	 R(6,17)          =         2.065334	       1.092928
	 R(6,18)          =         2.064273	       1.092366
	 R(7,19)          =         2.051735	       1.085732
	 R(7,20)          =         2.056256	       1.088124
	 R(7,21)          =         2.056369	       1.088184
	 B(1,2,4)         =         1.962476	     112.441590
	 B(1,2,9)         =         1.912142	     109.557649
	 B(1,2,10)        =         1.895988	     108.632117
	 B(1,3,5)         =         1.962599	     112.448665
	 B(1,3,11)        =         1.895948	     108.629833
	 B(1,3,12)        =         1.912157	     109.558545
	 B(1,7,19)        =         1.948845	     111.660591
	 B(1,7,20)        =         1.923152	     110.188503
	 B(1,7,21)        =         1.923369	     110.200944
	 B(2,1,3)         =         1.915947	     109.775651
	 B(2,1,7)         =         1.956160	     112.079710
	 B(2,1,8)         =         1.880747	     107.758882
	 B(2,4,6)         =         1.928729	     110.508058
	 B(2,4,13)        =         1.919382	     109.972461
	 B(2,4,14)        =         1.909228	     109.390695
	 B(3,1,7)         =         1.956303	     112.087919
	 B(3,1,8)         =         1.880736	     107.758213
	 B(3,5,6)         =         1.928904	     110.518079
	 B(3,5,15)        =         1.909064	     109.381313
	 B(3,5,16)        =         1.919471	     109.977588
	 B(4,2,9)         =         1.916456	     109.804814
	 B(4,2,10)        =         1.896124	     108.639907
	 B(4,6,5)         =         1.925679	     110.333292
	 B(4,6,17)        =         1.907448	     109.288740
	 B(4,6,18)        =         1.920303	     110.025233
	 B(5,3,11)        =         1.896069	     108.636743
	 B(5,3,12)        =         1.916418	     109.802635
	 B(5,6,17)        =         1.907462	     109.289504
	 B(5,6,18)        =         1.920302	     110.025195
	 B(6,4,13)        =         1.911534	     109.522837
	 B(6,4,14)        =         1.917934	     109.889503
	 B(6,5,15)        =         1.917809	     109.882347
	 B(6,5,16)        =         1.911561	     109.524363
	 B(7,1,8)         =         1.870271	     107.158645
	 B(9,2,10)        =         1.878605	     107.636120
	 B(11,3,12)       =         1.878592	     107.635420
	 B(13,4,14)       =         1.876308	     107.504541
	 B(15,5,16)       =         1.876300	     107.504055
	 B(17,6,18)       =         1.882031	     107.832434
	 B(19,7,20)       =         1.888490	     108.202491
	 B(19,7,21)       =         1.888597	     108.208622
	 B(20,7,21)       =         1.889879	     108.282098
	 D(1,2,4,6)       =         0.986842	      56.541904
	 D(1,2,4,13)      =        -1.125621	     -64.493311
	 D(1,2,4,14)      =         3.100659	     177.654652
	 D(1,3,5,6)       =        -0.986141	     -56.501704
	 D(1,3,5,15)      =        -3.099807	    -177.605844
	 D(1,3,5,16)      =         1.126528	      64.545286
	 D(2,1,3,5)       =         0.939862	      53.850136
	 D(2,1,3,11)      =        -1.159358	     -66.426312
	 D(2,1,3,12)      =         3.076099	     176.247518
	 D(2,1,7,19)      =        -1.082359	     -62.014604
	 D(2,1,7,20)      =         1.016828	      58.259979
	 D(2,1,7,21)      =         3.101357	     177.694687
	 D(2,4,6,5)       =        -1.005954	     -57.636912
	 D(2,4,6,17)      =         1.091835	      62.557551
	 D(2,4,6,18)      =        -3.127998	    -179.221090
	 D(3,1,2,4)       =        -0.940225	     -53.870922
	 D(3,1,2,9)       =        -3.076415	    -176.265619
	 D(3,1,2,10)      =         1.159013	      66.406564
	 D(3,1,7,19)      =         1.081194	      61.947869
	 D(3,1,7,20)      =        -3.102804	    -177.777548
	 D(3,1,7,21)      =        -1.018275	     -58.342841
	 D(3,5,6,4)       =         1.005624	      57.618025
	 D(3,5,6,17)      =        -1.092157	     -62.575979
	 D(3,5,6,18)      =         3.127669	     179.202225
	 D(4,2,1,7)       =         1.245704	      71.373572
	 D(4,2,1,8)       =        -2.983938	    -170.967055
	 D(4,6,5,15)      =         3.114090	     178.424189
	 D(4,6,5,16)      =        -1.111738	     -63.697867
	 D(5,3,1,7)       =        -1.245984	     -71.389643
	 D(5,3,1,8)       =         2.983583	     170.946688
	 D(5,6,4,13)      =         1.111167	      63.665154
	 D(5,6,4,14)      =        -3.114592	    -178.452982
	 D(6,4,2,9)       =         3.120594	     178.796890
	 D(6,4,2,10)      =        -1.112317	     -63.731081
	 D(6,5,3,11)      =         1.113010	      63.770753
	 D(6,5,3,12)      =        -3.119970	    -178.761136
	 D(7,1,2,9)       =        -0.890487	     -51.021125
	 D(7,1,2,10)      =        -2.938243	    -168.348942
	 D(7,1,3,11)      =         2.937981	     168.333908
	 D(7,1,3,12)      =         0.890253	      51.007738
	 D(8,1,2,9)       =         1.163057	      66.638248
	 D(8,1,2,10)      =        -0.884700	     -50.689570
	 D(8,1,3,11)      =         0.884363	      50.670240
	 D(8,1,3,12)      =        -1.163365	     -66.655931
	 D(8,1,7,19)      =         3.141044	     179.968547
	 D(8,1,7,20)      =        -1.042954	     -59.756870
	 D(8,1,7,21)      =         1.041575	      59.677837
	 D(9,2,4,13)      =         1.008131	      57.761675
	 D(9,2,4,14)      =        -1.048775	     -60.090362
	 D(10,2,4,13)     =         3.058405	     175.233704
	 D(10,2,4,14)     =         1.001499	      57.381667
	 D(11,3,5,15)     =        -1.000656	     -57.333387
	 D(11,3,5,16)     =        -3.057507	    -175.182257
	 D(12,3,5,15)     =         1.049549	      60.134724
	 D(12,3,5,16)     =        -1.007302	     -57.714146
	 D(13,4,6,17)     =        -3.074230	    -176.140383
	 D(13,4,6,18)     =        -1.010878	     -57.919024
	 D(14,4,6,17)     =        -1.016803	     -58.258519
	 D(14,4,6,18)     =         1.046549	      59.962840
	 D(15,5,6,17)     =         1.016308	      58.230186
	 D(15,5,6,18)     =        -1.047051	     -59.991610
	 D(16,5,6,17)     =         3.073667	     176.108129
	 D(16,5,6,18)     =         1.010307	      57.886333
	 R(6,7)           =         7.115521	       3.765372

	Current energy   :      -274.9436247156

	Generating empirical Hessian (Schlegel '84) for each fragment.
	Taking RFO optimization step.
	Going to follow RFO solution 1.
	Using RFO vector 1.
	Norm of target step-size    0.21764
	Projected energy change by RFO approximation:        -0.0029386178

	Back-transformation to cartesian coordinates...
	Successfully converged to displaced geometry.

	--- Internal Coordinate Step in ANG or DEG, aJ/ANG or AJ/DEG ---
	 ---------------------------------------------------------------------------
	   Coordinate                Previous        Force       Change         New 
	   ----------                --------       ------       ------       ------
	    1 R(1,2)          =      1.532487     0.002636    -0.000079     1.532409
	    2 R(1,3)          =      1.532499     0.002602    -0.000109     1.532389
	    3 R(1,7)          =      1.527551    -0.004118    -0.000704     1.526848
	    4 R(1,8)          =      1.097466    -0.004000    -0.000754     1.096712
	    5 R(2,4)          =      1.526162     0.002656     0.000681     1.526843
	    6 R(2,9)          =      1.092390     0.014261     0.002644     1.095034
	    7 R(2,10)         =      1.093161     0.016697     0.003104     1.096264
	    8 R(3,5)          =      1.526199     0.002597     0.000631     1.526830
	    9 R(3,11)         =      1.093179     0.016597     0.003085     1.096264
	   10 R(3,12)         =      1.092408     0.014164     0.002626     1.095034
	   11 R(4,6)          =      1.525047    -0.000557     0.000704     1.525751
	   12 R(4,13)         =      1.091323     0.019089     0.003527     1.094850
	   13 R(4,14)         =      1.092542     0.008976     0.001665     1.094207
	   14 R(5,6)          =      1.525080    -0.000644     0.000663     1.525743
	   15 R(5,15)         =      1.092533     0.009042     0.001677     1.094210
	   16 R(5,16)         =      1.091307     0.019174     0.003542     1.094849
	   17 R(6,17)         =      1.092928     0.019340     0.003592     1.096520
	   18 R(6,18)         =      1.092366     0.010426     0.001933     1.094299
	   19 R(7,19)         =      1.085732     0.030849     0.005595     1.091326
	   20 R(7,20)         =      1.088124     0.026517     0.004847     1.092971
	   21 R(7,21)         =      1.088184     0.026152     0.004782     1.092965
	   22 B(1,2,4)        =    112.441590     0.000013     0.530652   112.972241
	   23 B(1,2,9)        =    109.557649     0.000006     0.199907   109.757556
	   24 B(1,2,10)       =    108.632117     0.000011    -0.052272   108.579845
	   25 B(1,3,5)        =    112.448665     0.000014     0.522245   112.970910
	   26 B(1,3,11)       =    108.629833     0.000011    -0.049014   108.580819
	   27 B(1,3,12)       =    109.558545     0.000006     0.200024   109.758569
	   28 B(1,7,19)       =    111.660591     0.000138     0.645389   112.305980
	   29 B(1,7,20)       =    110.188503     0.000096     0.458675   110.647178
	   30 B(1,7,21)       =    110.200944     0.000094     0.445419   110.646363
	   31 B(2,1,3)        =    109.775651     0.000008     0.358884   110.134535
	   32 B(2,1,7)        =    112.079710     0.000013     0.295605   112.375315
	   33 B(2,1,8)        =    107.758882    -0.000010    -0.332937   107.425944
	   34 B(2,4,6)        =    110.508058     0.000012     0.770536   111.278594
	   35 B(2,4,13)       =    109.972461     0.000011    -0.060100   109.912361
	   36 B(2,4,14)       =    109.390695     0.000024     0.278780   109.669476
	   37 B(3,1,7)        =    112.087919     0.000011     0.287086   112.375005
	   38 B(3,1,8)        =    107.758213    -0.000009    -0.333266   107.424947
	   39 B(3,5,6)        =    110.518079     0.000011     0.760059   111.278137
	   40 B(3,5,15)       =    109.381313     0.000025     0.285636   109.666949
	   41 B(3,5,16)       =    109.977588     0.000011    -0.063275   109.914313
	   42 B(4,2,9)        =    109.804814     0.000050     0.522052   110.326866
	   43 B(4,2,10)       =    108.639907    -0.000023    -0.283537   108.356370
	   44 B(4,6,5)        =    110.333292     0.000060     1.014531   111.347824
	   45 B(4,6,17)       =    109.288740    -0.000033    -0.399936   108.888804
	   46 B(4,6,18)       =    110.025233     0.000028     0.395783   110.421016
	   47 B(5,3,11)       =    108.636743    -0.000023    -0.278828   108.357915
	   48 B(5,3,12)       =    109.802635     0.000049     0.521441   110.324076
	   49 B(5,6,17)       =    109.289504    -0.000033    -0.400675   108.888829
	   50 B(5,6,18)       =    110.025195     0.000028     0.392928   110.418122
	   51 B(6,4,13)       =    109.522837    -0.000030    -0.358193   109.164643
	   52 B(6,4,14)       =    109.889503     0.000051     0.439745   110.329249
	   53 B(6,5,15)       =    109.882347     0.000051     0.446113   110.328460
	   54 B(6,5,16)       =    109.524363    -0.000029    -0.359256   109.165106
	   55 B(7,1,8)        =    107.158645    -0.000015    -0.357233   106.801413
	   56 B(9,2,10)       =    107.636120    -0.000062    -1.013584   106.622536
	   57 B(11,3,12)      =    107.635420    -0.000062    -1.012098   106.623322
	   58 B(13,4,14)      =    107.504541    -0.000069    -1.140301   106.364240
	   59 B(15,5,16)      =    107.504055    -0.000070    -1.138341   106.365714
	   60 B(17,6,18)      =    107.832434    -0.000054    -1.090660   106.741774
	   61 B(19,7,20)      =    108.202491    -0.000124    -0.601895   107.600596
	   62 B(19,7,21)      =    108.208622    -0.000124    -0.608198   107.600424
	   63 B(20,7,21)      =    108.282098    -0.000094    -0.419936   107.862161
	   64 D(1,2,4,6)      =     56.541904    -0.000014    -1.868880    54.673024
	   65 D(1,2,4,13)     =    -64.493311    -0.000009    -1.883153   -66.376464
	   66 D(1,2,4,14)     =    177.654652     0.000006    -0.627904   177.026749
	   67 D(1,3,5,6)      =    -56.501704     0.000014     1.822198   -54.679505
	   68 D(1,3,5,15)     =   -177.605844    -0.000006     0.575655  -177.030189
	   69 D(1,3,5,16)     =     64.545286     0.000009     1.826292    66.371578
	   70 D(2,1,3,5)      =     53.850136    -0.000004    -0.880796    52.969340
	   71 D(2,1,3,11)     =    -66.426312    -0.000002    -0.828283   -67.254595
	   72 D(2,1,3,12)     =    176.247518     0.000013     0.301905   176.549423
	   73 D(2,1,7,19)     =    -62.014604    -0.000003    -0.443575   -62.458178
	   74 D(2,1,7,20)     =     58.259979    -0.000004    -0.462453    57.797527
	   75 D(2,1,7,21)     =    177.694687    -0.000003    -0.407785   177.286902
	   76 D(2,4,6,5)      =    -57.636912     0.000018     2.738043   -54.898869
	   77 D(2,4,6,17)     =     62.557551     0.000012     2.616078    65.173629
	   78 D(2,4,6,18)     =   -179.221090    -0.000004     1.283575  -177.937515
	   79 D(3,1,2,4)      =    -53.870922     0.000005     0.904480   -52.966441
	   80 D(3,1,2,9)      =   -176.265619    -0.000013    -0.284722  -176.550341
	   81 D(3,1,2,10)     =     66.406564     0.000002     0.849164    67.255728
	   82 D(3,1,7,19)     =     61.947869     0.000003     0.485646    62.433514
	   83 D(3,1,7,20)     =   -177.777548     0.000003     0.466768  -177.310781
	   84 D(3,1,7,21)     =    -58.342841     0.000004     0.521436   -57.821406
	   85 D(3,5,6,4)      =     57.618025    -0.000018    -2.715815    54.902209
	   86 D(3,5,6,17)     =    -62.575979    -0.000012    -2.594295   -65.170274
	   87 D(3,5,6,18)     =    179.202225     0.000004    -1.259713   177.942511
	   88 D(4,2,1,7)      =     71.373572     0.000011     1.773450    73.147023
	   89 D(4,2,1,8)      =   -170.967055     0.000007     1.297458  -169.669597
	   90 D(4,6,5,15)     =    178.424189    -0.000001    -1.554192   176.869997
	   91 D(4,6,5,16)     =    -63.697867    -0.000018    -2.888844   -66.586711
	   92 D(5,3,1,7)      =    -71.389643    -0.000011    -1.754655   -73.144299
	   93 D(5,3,1,8)      =    170.946688    -0.000007    -1.273570   169.673118
	   94 D(5,6,4,13)     =     63.665154     0.000018     2.922437    66.587590
	   95 D(5,6,4,14)     =   -178.452982     0.000001     1.582260  -176.870722
	   96 D(6,4,2,9)      =    178.796890    -0.000002    -0.854624   177.942265
	   97 D(6,4,2,10)     =    -63.731081    -0.000016    -1.945859   -65.676940
	   98 D(6,5,3,11)     =     63.770753     0.000016     1.901146    65.671899
	   99 D(6,5,3,12)     =   -178.761136     0.000002     0.814121  -177.947014
	  100 D(7,1,2,9)      =    -51.021125    -0.000006     0.584248   -50.436877
	  101 D(7,1,2,10)     =   -168.348942     0.000008     1.718134  -166.630808
	  102 D(7,1,3,11)     =    168.333908    -0.000009    -1.702142   166.631766
	  103 D(7,1,3,12)     =     51.007738     0.000006    -0.571954    50.435784
	  104 D(8,1,2,9)      =     66.638248    -0.000010     0.108256    66.746504
	  105 D(8,1,2,10)     =    -50.689570     0.000005     1.242142   -49.447428
	  106 D(8,1,3,11)     =     50.670240    -0.000005    -1.221057    49.449183
	  107 D(8,1,3,12)     =    -66.655931     0.000010    -0.090869   -66.746799
	  108 D(8,1,7,19)     =    179.968547    -0.000000     0.018429   179.986976
	  109 D(8,1,7,20)     =    -59.756870    -0.000000    -0.000450   -59.757320
	  110 D(8,1,7,21)     =     59.677837     0.000000     0.054219    59.732056
	  111 D(9,2,4,13)     =     57.761675     0.000003    -0.868897    56.892778
	  112 D(9,2,4,14)     =    -60.090362     0.000018     0.386352   -59.704010
	  113 D(10,2,4,13)    =    175.233704    -0.000011    -1.960131   173.273572
	  114 D(10,2,4,14)    =     57.381667     0.000004    -0.704882    56.676785
	  115 D(11,3,5,15)    =    -57.333387    -0.000004     0.654603   -56.678784
	  116 D(11,3,5,16)    =   -175.182257     0.000010     1.905239  -173.277017
	  117 D(12,3,5,15)    =     60.134724    -0.000018    -0.432422    59.702302
	  118 D(12,3,5,16)    =    -57.714146    -0.000003     0.818215   -56.895931
	  119 D(13,4,6,17)    =   -176.140383     0.000013     2.800471  -173.339912
	  120 D(13,4,6,18)    =    -57.919024    -0.000003     1.467968   -56.451055
	  121 D(14,4,6,17)    =    -58.258519    -0.000004     1.460294   -56.798225
	  122 D(14,4,6,18)    =     59.962840    -0.000020     0.127792    60.090632
	  123 D(15,5,6,17)    =     58.230186     0.000004    -1.432672    56.797514
	  124 D(15,5,6,18)    =    -59.991610     0.000020    -0.098090   -60.089700
	  125 D(16,5,6,17)    =    176.108129    -0.000013    -2.767323   173.340806
	  126 D(16,5,6,18)    =     57.886333     0.000003    -1.432742    56.453591
	  127 R(6,7)          =      3.765372     0.004047     0.022463     3.787835
	 ---------------------------------------------------------------------------
	Successfully symmetrized geometry.

  ==> Convergence Check <==

  Measures of convergence in internal coordinates in au.
  Criteria marked as inactive (o), active & met (*), and active & unmet ( ).
  --------------------------------------------------------------------------------------------- ~
   Step     Total Energy     Delta E     MAX Force     RMS Force      MAX Disp      RMS Disp    ~
  --------------------------------------------------------------------------------------------- ~
    Convergence Criteria    1.00e-06 *    3.00e-04 *             o    1.20e-03 *             o  ~
  --------------------------------------------------------------------------------------------- ~
      1    -274.94362472   -2.75e+02      3.74e-03      9.34e-04 o    5.10e-02      1.93e-02 o  ~
  ---------------------------------------------------------------------------------------------

	Writing optimization data to binary file.
	Structure for next step:
	Cartesian Geometry (in Angstrom)
	    C    -1.1086732827   0.0000406969  -0.5152463796
	    C    -0.2378174463   1.2563134302  -0.6232499027
	    C    -0.2379210885  -1.2562840006  -0.6232075254
	    C     0.9277481227   1.2600127194   0.3630013790
	    C     0.9275828914  -1.2600379959   0.3630961080
	    C     1.7763943099  -0.0000783983   0.2219836689
	    C    -1.9756319307   0.0000885401   0.7415936164
	    H    -1.7929037881   0.0000408334  -1.3723373192
	    H    -0.8567485940   2.1488603946  -0.4840250677
	    H     0.1696037874   1.3125995194  -1.6394366604
	    H     0.1695210733  -1.3126382560  -1.6393816625
	    H    -0.8568995994  -2.1487913176  -0.4839396355
	    H     0.5486511819   1.3251808585   1.3880549388
	    H     1.5418040346   2.1516330295   0.2041373727
	    H     1.5415298723  -2.1517464361   0.2042842150
	    H     0.5484603691  -1.3250767289   1.3881477114
	    H     2.2501757650  -0.0001474853  -0.7668976955
	    H     2.5852413914  -0.0001362886   0.9590430842
	    H    -1.3797140185  -0.0001376799   1.6558552828
	    H    -2.6184759768   0.8836756946   0.7663208490
	    H    -2.6188325342  -0.8832372846   0.7661219200
			--------------------------
			 OPTKING Finished Execution 
			--------------------------

    Structure for next step:
    Molecular point group: c1
    Full point group: C1

    Geometry (in Angstrom), charge = 0, multiplicity = 1:

    C           -1.109545553374     0.000033160703    -0.516153540812
    C           -0.238689713516     1.256305898906    -0.624157064292
    C           -0.238793355769    -1.256291541703    -0.624114687024
    C            0.926875860060     1.260005188186     0.362094221300
    C            0.926710628738    -1.260045537012     0.362188950258
    C            1.775522050543    -0.000085934518     0.221076510624
    C           -1.976504204754     0.000081003948     0.740686460166
    H           -1.793776061447     0.000033297226    -1.373244483776
    H           -0.857620863658     2.148852866846    -0.484932228768
    H            0.168731521756     1.312591988416    -1.640343825954
    H            0.168648807617    -1.312645797378    -1.640288828095
    H           -0.857771869117    -2.148798862278    -0.484846796579
    H            0.547778917769     1.325173327531     1.387147785141
    H            1.540931774298     2.151625501723     0.203230214318
    H            1.540657611989    -2.151753980721     0.203377056609
    H            0.547588104907    -1.325084270277     1.387240557750
    H            2.249303507483    -0.000155021441    -0.767804857651
    H            2.584369135270    -0.000143824767     0.958135928812
    H           -1.380586290264    -0.000145216054     1.654948130137
    H           -2.619348253423     0.883668161891     0.765413692840
    H           -2.619704810805    -0.883244824268     0.765214763867

gradient() will perform analytic gradient computation.

*** tstart() called on lenovo
*** at Tue Jan 18 21:24:21 2022

   => Loading Basis Set <=

    Name: DEF2-TZVP
    Role: ORBITAL
    Keyword: BASIS
    atoms 1-7  entry C          line   123 file /usr/share/psi4/basis/def2-tzvp.gbs 
    atoms 8-21 entry H          line    15 file /usr/share/psi4/basis/def2-tzvp.gbs 


         ---------------------------------------------------------
                                   SCF
               by Justin Turney, Rob Parrish, Andy Simmonett
                          and Daniel G. A. Smith
                              RKS Reference
                        4 Threads,   7629 MiB Core
         ---------------------------------------------------------

  ==> Geometry <==

    Molecular point group: c1
    Full point group: C1

    Geometry (in Angstrom), charge = 0, multiplicity = 1:

       Center              X                  Y                   Z               Mass       
    ------------   -----------------  -----------------  -----------------  -----------------
         C           -1.109545553374     0.000033160703    -0.516153540812    12.000000000000
         C           -0.238689713516     1.256305898906    -0.624157064292    12.000000000000
         C           -0.238793355769    -1.256291541703    -0.624114687024    12.000000000000
         C            0.926875860060     1.260005188186     0.362094221300    12.000000000000
         C            0.926710628738    -1.260045537012     0.362188950258    12.000000000000
         C            1.775522050543    -0.000085934518     0.221076510624    12.000000000000
         C           -1.976504204754     0.000081003948     0.740686460166    12.000000000000
         H           -1.793776061447     0.000033297226    -1.373244483776     1.007825032230
         H           -0.857620863658     2.148852866846    -0.484932228768     1.007825032230
         H            0.168731521756     1.312591988416    -1.640343825954     1.007825032230
         H            0.168648807617    -1.312645797378    -1.640288828095     1.007825032230
         H           -0.857771869117    -2.148798862278    -0.484846796579     1.007825032230
         H            0.547778917769     1.325173327531     1.387147785141     1.007825032230
         H            1.540931774298     2.151625501723     0.203230214318     1.007825032230
         H            1.540657611989    -2.151753980721     0.203377056609     1.007825032230
         H            0.547588104907    -1.325084270277     1.387240557750     1.007825032230
         H            2.249303507483    -0.000155021441    -0.767804857651     1.007825032230
         H            2.584369135270    -0.000143824767     0.958135928812     1.007825032230
         H           -1.380586290264    -0.000145216054     1.654948130137     1.007825032230
         H           -2.619348253423     0.883668161891     0.765413692840     1.007825032230
         H           -2.619704810805    -0.883244824268     0.765214763867     1.007825032230

  Running in c1 symmetry.

  Rotational constants: A =      0.11782  B =      0.08458  C =      0.06419 [cm^-1]
  Rotational constants: A =   3532.06965  B =   2535.73129  C =   1924.26317 [MHz]
  Nuclear repulsion =  333.500540614981446

  Charge       = 0
  Multiplicity = 1
  Electrons    = 56
  Nalpha       = 28
  Nbeta        = 28

  ==> Algorithm <==

  SCF Algorithm Type is DF.
  DIIS enabled.
  MOM disabled.
  Fractional occupation disabled.
  Guess Type is READ.
  Energy threshold   = 1.00e-08
  Density threshold  = 1.00e-08
  Integral threshold = 0.00e+00

  ==> Primary Basis <==

  Basis Set: DEF2-TZVP
    Blend: DEF2-TZVP
    Number of shells: 133
    Number of basis function: 301
    Number of Cartesian functions: 336
    Spherical Harmonics?: true
    Max angular momentum: 3

  ==> DFT Potential <==

   => Composite Functional: PBE0 <= 

    PBE0 Hyb-GGA Exchange-Correlation Functional

    C. Adamo and V. Barone, J. Chem. Phys. 110, 6158 (1999)
    M. Ernzerhof and G. E. Scuseria, J. Chem. Phys. 110, 5029 (1999)

    Deriv               =              1
    GGA                 =           TRUE
    Meta                =          FALSE

    Exchange Hybrid     =           TRUE
    MP2 Hybrid          =          FALSE

   => Exchange Functionals <=

    0.7500   Perdew, Burke & Ernzerhof

   => Exact (HF) Exchange <=

    0.2500               HF 

   => Correlation Functionals <=

    1.0000   Perdew, Burke & Ernzerhof

   => Molecular Quadrature <=

    Radial Scheme          =       TREUTLER
    Pruning Scheme         =           FLAT
    Nuclear Scheme         =       TREUTLER

    BS radius alpha        =              1
    Pruning alpha          =              1
    Radial Points          =             75
    Spherical Points       =            302
    Total Points           =         472038
    Total Blocks           =           3442
    Max Points             =            256
    Max Functions          =            292

   => Loading Basis Set <=

    Name: (DEF2-TZVP AUX)
    Role: JKFIT
    Keyword: DF_BASIS_SCF
    atoms 1-7  entry C          line   203 file /usr/share/psi4/basis/def2-tzvp-jkfit.gbs 
    atoms 8-21 entry H          line    23 file /usr/share/psi4/basis/def2-tzvp-jkfit.gbs 

   => Loading Basis Set <=

    Name: DEF2-TZVP
    Role: ORBITAL
    Keyword: BASIS
    atoms 1-7  entry C          line   123 file /usr/share/psi4/basis/def2-tzvp.gbs 
    atoms 8-21 entry H          line    15 file /usr/share/psi4/basis/def2-tzvp.gbs 

  Reading orbitals from file 180, no projection.

  ==> Pre-Iterations <==

   -------------------------------------------------------
    Irrep   Nso     Nmo     Nalpha   Nbeta   Ndocc  Nsocc
   -------------------------------------------------------
     A        301     301       0       0       0       0
   -------------------------------------------------------
    Total     301     301      28      28      28       0
   -------------------------------------------------------

  ==> Integral Setup <==

  DFHelper Memory: AOs need 0.540 GiB; user supplied 2.577 GiB. Using in-core AOs.

  ==> MemDFJK: Density-Fitted J/K Matrices <==

    J tasked:                   Yes
    K tasked:                   Yes
    wK tasked:                   No
    OpenMP threads:               4
    Memory [MiB]:              2639
    Algorithm:                 Core
    Schwarz Cutoff:           1E-12
    Mask sparsity (%):       1.9183
    Fitting Condition:        1E-10

   => Auxiliary Basis Set <=

  Basis Set: (DEF2-TZVP AUX)
    Blend: DEF2-TZVP-JKFIT
    Number of shells: 259
    Number of basis function: 777
    Number of Cartesian functions: 903
    Spherical Harmonics?: true
    Max angular momentum: 4

  Cached 100.0% of DFT collocation blocks in 3.011 [GiB].

  Minimum eigenvalue in the overlap matrix is 1.0022629967E-04.
  Using Symmetric Orthogonalization.

  SCF Guess: Orbitals guess was supplied from a previous computation.

  ==> Iterations <==

                           Total Energy        Delta E     RMS |[F,P]|

   @DF-RKS iter   0:  -274.93178800135627   -2.74932e+02   1.69014e-04 
   @DF-RKS iter   1:  -274.94411453885817   -1.23265e-02   1.54539e-05 DIIS
   @DF-RKS iter   2:  -274.94412631166210   -1.17728e-05   1.12749e-05 DIIS
   @DF-RKS iter   3:  -274.94413176360024   -5.45194e-06   3.79007e-06 DIIS
   @DF-RKS iter   4:  -274.94413235663581   -5.93036e-07   8.95348e-07 DIIS
   @DF-RKS iter   5:  -274.94413239042979   -3.37940e-08   3.43702e-07 DIIS
   @DF-RKS iter   6:  -274.94413239559765   -5.16786e-09   8.00985e-08 DIIS
   @DF-RKS iter   7:  -274.94413239587175   -2.74099e-10   1.11177e-08 DIIS
   @DF-RKS iter   8:  -274.94413239587647   -4.71800e-12   3.92229e-09 DIIS
  Energy and wave function converged.


  ==> Post-Iterations <==

    Orbital Energies [Eh]
    ---------------------

    Doubly Occupied:                                                      

       1A    -10.217337     2A    -10.208870     3A    -10.208580  
       4A    -10.208477     5A    -10.207958     6A    -10.207945  
       7A    -10.202187     8A     -0.858487     9A     -0.780880  
      10A     -0.759628    11A     -0.695210    12A     -0.622596  
      13A     -0.609420    14A     -0.541903    15A     -0.497510  
      16A     -0.459021    17A     -0.458455    18A     -0.437204  
      19A     -0.411930    20A     -0.410172    21A     -0.384542  
      22A     -0.368604    23A     -0.363385    24A     -0.345620  
      25A     -0.341250    26A     -0.314960    27A     -0.301416  
      28A     -0.301144  

    Virtual:                                                              

      29A      0.038387    30A      0.060025    31A      0.073516  
      32A      0.081474    33A      0.101065    34A      0.102449  
      35A      0.107849    36A      0.119309    37A      0.121994  
      38A      0.124129    39A      0.139376    40A      0.146890  
      41A      0.167930    42A      0.170935    43A      0.173794  
      44A      0.199051    45A      0.199105    46A      0.222266  
      47A      0.223172    48A      0.230834    49A      0.239869  
      50A      0.244848    51A      0.254728    52A      0.255169  
      53A      0.275122    54A      0.279253    55A      0.298639  
      56A      0.304793    57A      0.324985    58A      0.330460  
      59A      0.372555    60A      0.403560    61A      0.404309  
      62A      0.413660    63A      0.417899    64A      0.423578  
      65A      0.435200    66A      0.435704    67A      0.442934  
      68A      0.452341    69A      0.454210    70A      0.458980  
      71A      0.462599    72A      0.473713    73A      0.474589  
      74A      0.480497    75A      0.481034    76A      0.499236  
      77A      0.499731    78A      0.507208    79A      0.514774  
      80A      0.522219    81A      0.523163    82A      0.539396  
      83A      0.590819    84A      0.614105    85A      0.631514  
      86A      0.658770    87A      0.666487    88A      0.731830  
      89A      0.743742    90A      0.765632    91A      0.766742  
      92A      0.780849    93A      0.794608    94A      0.802724  
      95A      0.816484    96A      0.853682    97A      0.854442  
      98A      0.887875    99A      0.910740   100A      0.921142  
     101A      0.935486   102A      0.952475   103A      0.968988  
     104A      1.005747   105A      1.027536   106A      1.043747  
     107A      1.049221   108A      1.060947   109A      1.115493  
     110A      1.118601   111A      1.138004   112A      1.162730  
     113A      1.175784   114A      1.186336   115A      1.189031  
     116A      1.200503   117A      1.250777   118A      1.257404  
     119A      1.262471   120A      1.277142   121A      1.296637  
     122A      1.314383   123A      1.316150   124A      1.328591  
     125A      1.435734   126A      1.437650   127A      1.493213  
     128A      1.542975   129A      1.556041   130A      1.569598  
     131A      1.584000   132A      1.593803   133A      1.607940  
     134A      1.616783   135A      1.637837   136A      1.637880  
     137A      1.651334   138A      1.657825   139A      1.673431  
     140A      1.689781   141A      1.697871   142A      1.724712  
     143A      1.753379   144A      1.768785   145A      1.782085  
     146A      1.793836   147A      1.833672   148A      1.842658  
     149A      1.886616   150A      1.888932   151A      1.905130  
     152A      1.912343   153A      1.938729   154A      1.974308  
     155A      1.991855   156A      2.015317   157A      2.017324  
     158A      2.051298   159A      2.087140   160A      2.126963  
     161A      2.134032   162A      2.138398   163A      2.167945  
     164A      2.179807   165A      2.206058   166A      2.236200  
     167A      2.251532   168A      2.258873   169A      2.303979  
     170A      2.340581   171A      2.350295   172A      2.377121  
     173A      2.424075   174A      2.439648   175A      2.442325  
     176A      2.463102   177A      2.475086   178A      2.507664  
     179A      2.523017   180A      2.531600   181A      2.540337  
     182A      2.550177   183A      2.557874   184A      2.576039  
     185A      2.603883   186A      2.620934   187A      2.624800  
     188A      2.633298   189A      2.636881   190A      2.645002  
     191A      2.667026   192A      2.675588   193A      2.677067  
     194A      2.699982   195A      2.720849   196A      2.731581  
     197A      2.752874   198A      2.775009   199A      2.788976  
     200A      2.797391   201A      2.818687   202A      2.838611  
     203A      2.859303   204A      2.860158   205A      2.873254  
     206A      2.874874   207A      2.905818   208A      2.943143  
     209A      2.962164   210A      2.975939   211A      3.020319  
     212A      3.041223   213A      3.052892   214A      3.096017  
     215A      3.101000   216A      3.140347   217A      3.149925  
     218A      3.160164   219A      3.184814   220A      3.202094  
     221A      3.225870   222A      3.234943   223A      3.258038  
     224A      3.285930   225A      3.286596   226A      3.306295  
     227A      3.319661   228A      3.333818   229A      3.356634  
     230A      3.367848   231A      3.381423   232A      3.413339  
     233A      3.426292   234A      3.427616   235A      3.438988  
     236A      3.469815   237A      3.482237   238A      3.506357  
     239A      3.511246   240A      3.521579   241A      3.534932  
     242A      3.559314   243A      3.588785   244A      3.601064  
     245A      3.603727   246A      3.609485   247A      3.623353  
     248A      3.642055   249A      3.673425   250A      3.682120  
     251A      3.692260   252A      3.765062   253A      3.786170  
     254A      3.831830   255A      3.908343   256A      3.927214  
     257A      3.947453   258A      3.987186   259A      3.992295  
     260A      4.032742   261A      4.049197   262A      4.065210  
     263A      4.080709   264A      4.084711   265A      4.107548  
     266A      4.117890   267A      4.157289   268A      4.193244  
     269A      4.197281   270A      4.235409   271A      4.270444  
     272A      4.284690   273A      4.330504   274A      4.365472  
     275A      4.394192   276A      4.429836   277A      4.444670  
     278A      4.462218   279A      4.522747   280A      4.541930  
     281A      4.558903   282A      4.634143   283A      4.651800  
     284A      4.703084   285A      4.782747   286A      4.788325  
     287A      4.853554   288A      4.881011   289A      4.919052  
     290A      4.932180   291A      5.019859   292A      5.061905  
     293A      5.095298   294A      5.101061   295A     22.494271  
     296A     22.531296   297A     22.578482   298A     22.607249  
     299A     22.644417   300A     22.707865   301A     22.749043  

    Final Occupation by Irrep:
              A 
    DOCC [    28 ]

  @DF-RKS Final Energy:  -274.94413239587647

   => Energetics <=

    Nuclear Repulsion Energy =            333.5005406149814462
    One-Electron Energy =               -1030.1111459296480461
    Two-Electron Energy =                 454.3310294650510741
    DFT Exchange-Correlation Energy =     -32.6645565462609611
    Empirical Dispersion Energy =           0.0000000000000000
    VV10 Nonlocal Energy =                  0.0000000000000000
    Total Energy =                       -274.9441323958764656

Computation Completed


Properties will be evaluated at   0.000000,   0.000000,   0.000000 [a0]

Properties computed using the SCF density matrix

  Nuclear Dipole Moment: [e a0]
     X:    -0.7320      Y:    -0.0000      Z:     0.8749

  Electronic Dipole Moment: [e a0]
     X:     0.7353      Y:     0.0000      Z:    -0.9060

  Dipole Moment: [e a0]
     X:     0.0033      Y:    -0.0000      Z:    -0.0311     Total:     0.0313

  Dipole Moment: [D]
     X:     0.0085      Y:    -0.0000      Z:    -0.0790     Total:     0.0794


*** tstop() called on lenovo at Tue Jan 18 21:24:52 2022
Module time:
	user time   =     106.57 seconds =       1.78 minutes
	system time =       0.91 seconds =       0.02 minutes
	total time  =         31 seconds =       0.52 minutes
Total time:
	user time   =     316.60 seconds =       5.28 minutes
	system time =       4.30 seconds =       0.07 minutes
	total time  =         91 seconds =       1.52 minutes

*** tstart() called on lenovo
*** at Tue Jan 18 21:24:52 2022


         ------------------------------------------------------------
                                   SCF GRAD                          
                          Rob Parrish, Justin Turney,                
                       Andy Simmonett, and Alex Sokolov              
         ------------------------------------------------------------

  ==> Geometry <==

    Molecular point group: c1
    Full point group: C1

    Geometry (in Angstrom), charge = 0, multiplicity = 1:

       Center              X                  Y                   Z               Mass       
    ------------   -----------------  -----------------  -----------------  -----------------
         C           -1.109545553374     0.000033160703    -0.516153540812    12.000000000000
         C           -0.238689713516     1.256305898906    -0.624157064292    12.000000000000
         C           -0.238793355769    -1.256291541703    -0.624114687024    12.000000000000
         C            0.926875860060     1.260005188186     0.362094221300    12.000000000000
         C            0.926710628738    -1.260045537012     0.362188950258    12.000000000000
         C            1.775522050543    -0.000085934518     0.221076510624    12.000000000000
         C           -1.976504204754     0.000081003948     0.740686460166    12.000000000000
         H           -1.793776061447     0.000033297226    -1.373244483776     1.007825032230
         H           -0.857620863658     2.148852866846    -0.484932228768     1.007825032230
         H            0.168731521756     1.312591988416    -1.640343825954     1.007825032230
         H            0.168648807617    -1.312645797378    -1.640288828095     1.007825032230
         H           -0.857771869117    -2.148798862278    -0.484846796579     1.007825032230
         H            0.547778917769     1.325173327531     1.387147785141     1.007825032230
         H            1.540931774298     2.151625501723     0.203230214318     1.007825032230
         H            1.540657611989    -2.151753980721     0.203377056609     1.007825032230
         H            0.547588104907    -1.325084270277     1.387240557750     1.007825032230
         H            2.249303507483    -0.000155021441    -0.767804857651     1.007825032230
         H            2.584369135270    -0.000143824767     0.958135928812     1.007825032230
         H           -1.380586290264    -0.000145216054     1.654948130137     1.007825032230
         H           -2.619348253423     0.883668161891     0.765413692840     1.007825032230
         H           -2.619704810805    -0.883244824268     0.765214763867     1.007825032230

  Nuclear repulsion =  333.500540614981446

  ==> Basis Set <==

  Basis Set: DEF2-TZVP
    Blend: DEF2-TZVP
    Number of shells: 133
    Number of basis function: 301
    Number of Cartesian functions: 336
    Spherical Harmonics?: true
    Max angular momentum: 3

  ==> DFJKGrad: Density-Fitted SCF Gradients <==

    Gradient:                    1
    J tasked:                  Yes
    K tasked:                  Yes
    wK tasked:                  No
    OpenMP threads:              4
    Integrals threads:           4
    Memory [MiB]:             5722
    Schwarz Cutoff:          0E+00
    Fitting Condition:       1E-10

   => Auxiliary Basis Set <=

  Basis Set: (DEF2-TZVP AUX)
    Blend: DEF2-TZVP-JKFIT
    Number of shells: 259
    Number of basis function: 777
    Number of Cartesian functions: 903
    Spherical Harmonics?: true
    Max angular momentum: 4

  ==> DFT Potential <==

   => Composite Functional: PBE0 <= 

    PBE0 Hyb-GGA Exchange-Correlation Functional

    C. Adamo and V. Barone, J. Chem. Phys. 110, 6158 (1999)
    M. Ernzerhof and G. E. Scuseria, J. Chem. Phys. 110, 5029 (1999)

    Deriv               =              1
    GGA                 =           TRUE
    Meta                =          FALSE

    Exchange Hybrid     =           TRUE
    MP2 Hybrid          =          FALSE

   => Exchange Functionals <=

    0.7500   Perdew, Burke & Ernzerhof

   => Exact (HF) Exchange <=

    0.2500               HF 

   => Correlation Functionals <=

    1.0000   Perdew, Burke & Ernzerhof

   => Molecular Quadrature <=

    Radial Scheme          =       TREUTLER
    Pruning Scheme         =           FLAT
    Nuclear Scheme         =       TREUTLER

    BS radius alpha        =              1
    Pruning alpha          =              1
    Radial Points          =             75
    Spherical Points       =            302
    Total Points           =         472038
    Total Blocks           =           3442
    Max Points             =            256
    Max Functions          =            292


  -Total Gradient:
     Atom            X                  Y                   Z
    ------   -----------------  -----------------  -----------------
       1        0.000413675207    -0.000005707509    -0.000383670204
       2       -0.000825580436     0.001220779635    -0.001206762314
       3       -0.000821669574    -0.001213154388    -0.001214193918
       4        0.000515004023     0.001521364861     0.001008797463
       5        0.000505498287    -0.001516034306     0.001018446969
       6        0.001774071204    -0.000001153964     0.000230498525
       7       -0.001156410346    -0.000002375150     0.001867758573
       8       -0.000005737738    -0.000002921601     0.000057110663
       9       -0.000158831700    -0.000089976720     0.000149050062
      10        0.000077115516    -0.000195257319     0.000540713009
      11        0.000075976998     0.000195691321     0.000539440976
      12       -0.000155309832     0.000089497959     0.000152598618
      13        0.000243247725    -0.000380456407    -0.000795814355
      14       -0.000085391582     0.000056558622    -0.000287675847
      15       -0.000085970091    -0.000057730956    -0.000292467714
      16        0.000243863787     0.000381763769    -0.000794153981
      17       -0.000764029088     0.000000307698     0.000503318801
      18       -0.000027685999    -0.000003783584     0.000215882704
      19       -0.000123131480    -0.000001007362    -0.000698171199
      20        0.000174559698    -0.000089494989    -0.000325310124
      21        0.000176189338     0.000093063817    -0.000326443657


*** tstop() called on lenovo at Tue Jan 18 21:25:06 2022
Module time:
	user time   =      49.75 seconds =       0.83 minutes
	system time =       0.45 seconds =       0.01 minutes
	total time  =         14 seconds =       0.23 minutes
Total time:
	user time   =     366.36 seconds =       6.11 minutes
	system time =       4.75 seconds =       0.08 minutes
	total time  =        105 seconds =       1.75 minutes

			-----------------------------------------
			 OPTKING 2.0: for geometry optimizations 
			  - R.A. King,  Bethel University        
			-----------------------------------------

	Previous internal coordinate definitions found.
	---Fragment 1 Geometry and Gradient---
	 C          -2.0967372196        0.0000626646       -0.9753888308
	 C          -0.4510581875        2.3740740787       -1.1794859108
	 C          -0.4512540430       -2.3740469475       -1.1794058294
	 C           1.7515415278        2.3810647223        0.6842589099
	 C           1.7512292859       -2.3811409706        0.6844379217
	 C           3.3552504052       -0.0001623927        0.4177740579
	 C          -3.7350516328        0.0001530753        1.3996945545
	 H          -3.3897454865        0.0000629226       -2.5950559776
	 H          -1.6206685518        4.0607434022       -0.9163891018
	 H           0.3188563649        2.4804393726       -3.0998005826
	 H           0.3187000578       -2.4805410568       -3.0996966517
	 H          -1.6209539108       -4.0606413484       -0.9162276583
	 H           1.0351521319        2.5042146578        2.6213294095
	 H           2.9119390314        4.0659829228        0.3840494455
	 H           2.9114209398       -4.0662257129        0.3843269372
	 H           1.0347915478       -2.5040463640        2.6215047243
	 H           4.2505676022       -0.0002929481       -1.4509408988
	 H           4.8837498727       -0.0002717894        1.8106144964
	 H          -2.6089299812       -0.0002744186        3.1273987178
	 H          -4.9498508262        1.6698908118        1.4464222521
	 H          -4.9505246220       -1.6690908196        1.4460463309
	             0.0004136752       -0.0000057075       -0.0003836702
	            -0.0008255804        0.0012207796       -0.0012067623
	            -0.0008216696       -0.0012131544       -0.0012141939
	             0.0005150040        0.0015213649        0.0010087975
	             0.0005054983       -0.0015160343        0.0010184470
	             0.0017740712       -0.0000011540        0.0002304985
	            -0.0011564103       -0.0000023751        0.0018677586
	            -0.0000057377       -0.0000029216        0.0000571107
	            -0.0001588317       -0.0000899767        0.0001490501
	             0.0000771155       -0.0001952573        0.0005407130
	             0.0000759770        0.0001956913        0.0005394410
	            -0.0001553098        0.0000894980        0.0001525986
	             0.0002432477       -0.0003804564       -0.0007958144
	            -0.0000853916        0.0000565586       -0.0002876758
	            -0.0000859701       -0.0000577310       -0.0002924677
	             0.0002438638        0.0003817638       -0.0007941540
	            -0.0007640291        0.0000003077        0.0005033188
	            -0.0000276860       -0.0000037836        0.0002158827
	            -0.0001231315       -0.0000010074       -0.0006981712
	             0.0001745597       -0.0000894950       -0.0003253101
	             0.0001761893        0.0000930638       -0.0003264437

	---Fragment 1 Intrafragment Coordinates---
	 - Coordinate -           - BOHR/RAD -       - ANG/DEG -
	 R(1,2)           =         2.895832	       1.532409
	 R(1,3)           =         2.895796	       1.532389
	 R(1,7)           =         2.885324	       1.526848
	 R(1,8)           =         2.072485	       1.096712
	 R(2,4)           =         2.885314	       1.526843
	 R(2,9)           =         2.069314	       1.095034
	 R(2,10)          =         2.071640	       1.096264
	 R(3,5)           =         2.885290	       1.526830
	 R(3,11)          =         2.071639	       1.096264
	 R(3,12)          =         2.069314	       1.095034
	 R(4,6)           =         2.883251	       1.525751
	 R(4,13)          =         2.068966	       1.094850
	 R(4,14)          =         2.067752	       1.094207
	 R(5,6)           =         2.883236	       1.525743
	 R(5,15)          =         2.067758	       1.094210
	 R(5,16)          =         2.068965	       1.094849
	 R(6,17)          =         2.072122	       1.096520
	 R(6,18)          =         2.067925	       1.094299
	 R(7,19)          =         2.062307	       1.091326
	 R(7,20)          =         2.065416	       1.092971
	 R(7,21)          =         2.065405	       1.092965
	 B(1,2,4)         =         1.971738	     112.972241
	 B(1,2,9)         =         1.915631	     109.757556
	 B(1,2,10)        =         1.895076	     108.579845
	 B(1,3,5)         =         1.971714	     112.970910
	 B(1,3,11)        =         1.895093	     108.580819
	 B(1,3,12)        =         1.915648	     109.758569
	 B(1,7,19)        =         1.960109	     112.305980
	 B(1,7,20)        =         1.931158	     110.647178
	 B(1,7,21)        =         1.931143	     110.646363
	 B(2,1,3)         =         1.922210	     110.134535
	 B(2,1,7)         =         1.961319	     112.375315
	 B(2,1,8)         =         1.874936	     107.425944
	 B(2,4,6)         =         1.942178	     111.278594
	 B(2,4,13)        =         1.918333	     109.912361
	 B(2,4,14)        =         1.914093	     109.669476
	 B(3,1,7)         =         1.961314	     112.375005
	 B(3,1,8)         =         1.874919	     107.424947
	 B(3,5,6)         =         1.942170	     111.278137
	 B(3,5,15)        =         1.914049	     109.666949
	 B(3,5,16)        =         1.918367	     109.914313
	 B(4,2,9)         =         1.925567	     110.326866
	 B(4,2,10)        =         1.891175	     108.356370
	 B(4,6,5)         =         1.943386	     111.347824
	 B(4,6,17)        =         1.900468	     108.888804
	 B(4,6,18)        =         1.927210	     110.421016
	 B(5,3,11)        =         1.891202	     108.357915
[...]
	 B(9,2,10)        =         1.857211	     106.410355
	 B(11,3,12)       =         1.857212	     106.410425
	 B(13,4,14)       =         1.852223	     106.124554
	 B(15,5,16)       =         1.852225	     106.124678
	 B(17,6,18)       =         1.858732	     106.497471
	 B(19,7,20)       =         1.874423	     107.396500
	 B(19,7,21)       =         1.874422	     107.396450
	 B(20,7,21)       =         1.880490	     107.744143
	 D(1,2,4,6)       =         0.959641	      54.983398
	 D(1,2,4,13)      =        -1.156125	     -66.241064
	 D(1,2,4,14)      =         3.095472	     177.357503
	 D(1,3,5,6)       =        -0.959681	     -54.985655
	 D(1,3,5,15)      =        -3.095511	    -177.359705
	 D(1,3,5,16)      =         1.156082	      66.238642
	 D(2,1,3,5)       =         0.928209	      53.182461
	 D(2,1,3,11)      =        -1.173433	     -67.232781
	 D(2,1,3,12)      =         3.085074	     176.761692
	 D(2,1,7,19)      =        -1.086774	     -62.267571
	 D(2,1,7,20)      =         1.011207	      57.937900
	 D(2,1,7,21)      =         3.098431	     177.527006
	 D(2,4,6,5)       =        -0.963033	     -55.177734
	 D(2,4,6,17)      =         1.137230	      65.158465
	 D(2,4,6,18)      =        -3.109091	    -178.137789
	 D(3,1,2,4)       =        -0.928190	     -53.181365
	 D(3,1,2,9)       =        -3.085056	    -176.760714
	 D(3,1,2,10)      =         1.173454	      67.233985
	 D(3,1,7,19)      =         1.086541	      62.254212
	 D(3,1,7,20)      =        -3.098663	    -177.540318
	 D(3,1,7,21)      =        -1.011439	     -57.951212
	 D(3,5,6,4)       =         0.963053	      55.178868
	 D(3,5,6,17)      =        -1.137209	     -65.157265
	 D(3,5,6,18)      =         3.109111	     178.138910
	 D(4,2,1,7)       =         1.267852	      72.642553
	 D(4,2,1,8)       =        -2.966515	    -169.968791
	 D(4,6,5,15)      =         3.093566	     177.248262
	 D(4,6,5,16)      =        -1.159301	     -66.423075
	 D(5,3,1,7)       =        -1.267832	     -72.641445
	 D(5,3,1,8)       =         2.966532	     169.969790
	 D(5,6,4,13)      =         1.159326	      66.424463
	 D(5,6,4,14)      =        -3.093546	    -177.247151
	 D(6,4,2,9)       =         3.112182	     178.314895
	 D(6,4,2,10)      =        -1.142826	     -65.479102
	 D(6,5,3,11)      =         1.142786	      65.476805
	 D(6,5,3,12)      =        -3.112218	    -178.316970
	 D(7,1,2,9)       =        -0.889015	     -50.936797
	 D(7,1,2,10)      =        -2.913689	    -166.942097
	 D(7,1,3,11)      =         2.913710	     166.943312
	 D(7,1,3,12)      =         0.889032	      50.937786
	 D(8,1,2,9)       =         1.159804	      66.451860
	 D(8,1,2,10)      =        -0.864871	     -49.553441
	 D(8,1,3,11)      =         0.864890	      49.554547
	 D(8,1,3,12)      =        -1.159788	     -66.450980
	 D(8,1,7,19)      =         3.141478	     179.993421
	 D(8,1,7,20)      =        -1.043726	     -59.801109
	 D(8,1,7,21)      =         1.043497	      59.787997
	 D(9,2,4,13)      =         0.996416	      57.090433
	 D(9,2,4,14)      =        -1.035172	     -59.311000
	 D(10,2,4,13)     =         3.024593	     173.296436
	 D(10,2,4,14)     =         0.993005	      56.895003
	 D(11,3,5,15)     =        -0.993044	     -56.897245
	 D(11,3,5,16)     =        -3.024636	    -173.298897
	 D(12,3,5,15)     =         1.035137	      59.308979
	 D(12,3,5,16)     =        -0.996455	     -57.092673
	 D(13,4,6,17)     =        -3.023597	    -173.239338
	 D(13,4,6,18)     =        -0.986732	     -56.535592
	 D(14,4,6,17)     =        -0.993283	     -56.910951
	 D(14,4,6,18)     =         1.043581	      59.792794
	 D(15,5,6,17)     =         0.993304	      56.912129
	 D(15,5,6,18)     =        -1.043562	     -59.791696
	 D(16,5,6,17)     =         3.023622	     173.240792
	 D(16,5,6,18)     =         0.986756	      56.536967
	 R(6,7)           =         7.137660	       3.777087

	Current energy   :      -274.9441773351

	Energy change for the previous step:
		Projected    :         0.0000066262
		Actual       :        -0.0000004062

	Performing BFGS update.
	Previous computed or guess Hessian on step 1.
	Steps to be used in Hessian update: 3 2
	Taking RFO optimization step.
	Going to follow RFO solution 1.
	Using RFO vector 1.
	Norm of target step-size    0.00631
	Projected energy change by RFO approximation:         0.0000000240

	Back-transformation to cartesian coordinates...
	Could not converge backtransformation.
	Using first guess instead.

	--- Internal Coordinate Step in ANG or DEG, aJ/ANG or AJ/DEG ---
	 ---------------------------------------------------------------------------
	   Coordinate                Previous        Force       Change         New 
	   ----------                --------       ------       ------       ------
	    1 R(1,2)          =      1.531280     0.000212     0.000037     1.531317
	    2 R(1,3)          =      1.531278     0.000220     0.000040     1.531318
	    3 R(1,7)          =      1.524622    -0.000024    -0.000008     1.524615
	    4 R(1,8)          =      1.096678     0.000105     0.000013     1.096691
	    5 R(2,4)          =      1.524459     0.000368     0.000055     1.524514
	    6 R(2,9)          =      1.095157    -0.000049    -0.000013     1.095144
	    7 R(2,10)         =      1.097154    -0.000211    -0.000046     1.097108
	    8 R(3,5)          =      1.524458     0.000369     0.000057     1.524515
	    9 R(3,11)         =      1.097155    -0.000213    -0.000046     1.097109
	   10 R(3,12)         =      1.095156    -0.000046    -0.000013     1.095144
	   11 R(4,6)          =      1.523221     0.000169     0.000077     1.523298
	   12 R(4,13)         =      1.096249    -0.000194    -0.000052     1.096197
	   13 R(4,14)         =      1.094294     0.000084     0.000012     1.094306
	   14 R(5,6)          =      1.523221     0.000164     0.000078     1.523298
	   15 R(5,15)         =      1.094294     0.000084     0.000012     1.094306
	   16 R(5,16)         =      1.096250    -0.000201    -0.000053     1.096197
	   17 R(6,17)         =      1.097834    -0.000269    -0.000064     1.097770
	   18 R(6,18)         =      1.094288     0.000164     0.000026     1.094314
	   19 R(7,19)         =      1.092325     0.000033    -0.000035     1.092290
	   20 R(7,20)         =      1.093397    -0.000101    -0.000039     1.093359
	   21 R(7,21)         =      1.093398    -0.000105    -0.000039     1.093359
	   22 B(1,2,4)        =    112.920095    -0.000001    -0.010433   112.909663
	   23 B(1,2,9)        =    109.850431    -0.000002    -0.013020   109.837410
	   24 B(1,2,10)       =    108.604974     0.000000    -0.001029   108.603945
	   25 B(1,3,5)        =    112.919567    -0.000001    -0.009661   112.909905
	   26 B(1,3,11)       =    108.605168     0.000000    -0.001256   108.603912
	   27 B(1,3,12)       =    109.850488    -0.000002    -0.013135   109.837353
	   28 B(1,7,19)       =    112.420876     0.000000     0.000599   112.421474
	   29 B(1,7,20)       =    110.837106     0.000001     0.004739   110.841845
	   30 B(1,7,21)       =    110.837129     0.000001     0.004742   110.841871
	   31 B(2,1,3)        =    109.934553     0.000000    -0.026039   109.908514
	   32 B(2,1,7)        =    112.309663    -0.000000     0.003050   112.312713
	   33 B(2,1,8)        =    107.534057    -0.000001     0.001391   107.535448
	   34 B(2,4,6)        =    111.217892     0.000002     0.009192   111.227085
	   35 B(2,4,13)       =    109.957734    -0.000001    -0.005230   109.952504
	   36 B(2,4,14)       =    109.787334    -0.000000     0.000384   109.787718
	   37 B(3,1,7)        =    112.309683    -0.000000     0.003015   112.312699
	   38 B(3,1,8)        =    107.534212    -0.000001     0.001264   107.535477
	   39 B(3,5,6)        =    111.217459     0.000002     0.009872   111.227332
	   40 B(3,5,15)       =    109.787493    -0.000000     0.000174   109.787667
	   41 B(3,5,16)       =    109.957693    -0.000001    -0.005145   109.952548
	   42 B(4,2,9)        =    110.298577     0.000002     0.015891   110.314467
	   43 B(4,2,10)       =    108.522476     0.000001     0.002652   108.525127
	   44 B(4,6,5)        =    111.215809    -0.000001     0.004567   111.220376
	   45 B(4,6,17)       =    109.071646    -0.000000    -0.009216   109.062430
	   46 B(4,6,18)       =    110.425893     0.000001     0.007056   110.432949
	   47 B(5,3,11)       =    108.522552     0.000001     0.002538   108.525090
	   48 B(5,3,12)       =    110.298743     0.000002     0.015686   110.314429
	   49 B(5,6,17)       =    109.071759    -0.000000    -0.009369   109.062389
	   50 B(5,6,18)       =    110.425915     0.000001     0.007096   110.433011
	   51 B(6,4,13)       =    109.311113    -0.000001    -0.008751   109.302362
	   52 B(6,4,14)       =    110.313498    -0.000000     0.003923   110.317422
	   53 B(6,5,15)       =    110.313599    -0.000000     0.003742   110.317341
	   54 B(6,5,16)       =    109.311231    -0.000001    -0.008926   109.302305
	   55 B(7,1,8)        =    106.944711     0.000002     0.018706   106.963417
	   56 B(9,2,10)       =    106.410355     0.000000     0.006938   106.417293
	   57 B(11,3,12)      =    106.410425     0.000000     0.006770   106.417195
	   58 B(13,4,14)      =    106.124554     0.000000    -0.000092   106.124463
	   59 B(15,5,16)      =    106.124678     0.000000    -0.000334   106.124344
	   60 B(17,6,18)      =    106.497471    -0.000000    -0.000859   106.496611
	   61 B(19,7,20)      =    107.396500    -0.000001    -0.003853   107.392646
	   62 B(19,7,21)      =    107.396450    -0.000001    -0.003786   107.392664
	   63 B(20,7,21)      =    107.744143    -0.000001    -0.003092   107.741051
	   64 D(1,2,4,6)      =     54.983398     0.000000     0.018175    55.001574
	   65 D(1,2,4,13)     =    -66.241064     0.000000     0.026656   -66.214408
	   66 D(1,2,4,14)     =    177.357503     0.000000     0.029586   177.387089
	   67 D(1,3,5,6)      =    -54.985655    -0.000000    -0.014697   -55.000353
	   68 D(1,3,5,15)     =   -177.359705    -0.000000    -0.026191  -177.385896
	   69 D(1,3,5,16)     =     66.238642    -0.000000    -0.022894    66.215749
	   70 D(2,1,3,5)      =     53.182461     0.000000     0.064596    53.247057
	   71 D(2,1,3,11)     =    -67.232781     0.000000     0.068431   -67.164350
	   72 D(2,1,3,12)     =    176.761692     0.000000     0.068269   176.829961
	   73 D(2,1,7,19)     =    -62.267571     0.000000     0.023560   -62.244011
	   74 D(2,1,7,20)     =     57.937900     0.000000     0.022355    57.960254
	   75 D(2,1,7,21)     =    177.527006     0.000000     0.024677   177.551683
	   76 D(2,4,6,5)      =    -55.177734     0.000000     0.045242   -55.132492
	   77 D(2,4,6,17)     =     65.158465     0.000000     0.030455    65.188921
	   78 D(2,4,6,18)     =   -178.137789     0.000000     0.028021  -178.109768
	   79 D(3,1,2,4)      =    -53.181365    -0.000000    -0.066305   -53.247670
	   80 D(3,1,2,9)      =   -176.760714    -0.000000    -0.069778  -176.830493
	   81 D(3,1,2,10)     =     67.233985    -0.000000    -0.070334    67.163651
	   82 D(3,1,7,19)     =     62.254212    -0.000000    -0.006419    62.247793
	   83 D(3,1,7,20)     =   -177.540318    -0.000000    -0.007624  -177.547942
	   84 D(3,1,7,21)     =    -57.951212    -0.000000    -0.005302   -57.956513
	   85 D(3,5,6,4)      =     55.178868    -0.000000    -0.046977    55.131891
	   86 D(3,5,6,17)     =    -65.157265    -0.000000    -0.032281   -65.189546
	   87 D(3,5,6,18)     =    178.138910    -0.000000    -0.029779   178.109131
	   88 D(4,2,1,7)      =     72.642553    -0.000000    -0.080070    72.562482
	   89 D(4,2,1,8)      =   -169.968791     0.000000    -0.054618  -170.023409
	   90 D(4,6,5,15)     =    177.248262    -0.000000    -0.037457   177.210805
	   91 D(4,6,5,16)     =    -66.423075    -0.000000    -0.040948   -66.464023
	   92 D(5,3,1,7)      =    -72.641445     0.000000     0.078341   -72.563104
	   93 D(5,3,1,8)      =    169.969790    -0.000000     0.052988   170.022778
	   94 D(5,6,4,13)     =     66.424463     0.000000     0.038783    66.463246
	   95 D(5,6,4,14)     =   -177.247151     0.000000     0.035793  -177.211358
	   96 D(6,4,2,9)      =    178.314895    -0.000000     0.005593   178.320488
	   97 D(6,4,2,10)     =    -65.479102    -0.000000     0.024297   -65.454805
	   98 D(6,5,3,11)     =     65.476805     0.000000    -0.020691    65.456114
	   99 D(6,5,3,12)     =   -178.316970     0.000000    -0.002369  -178.319340
	  100 D(7,1,2,9)      =    -50.936797    -0.000000    -0.083544   -51.020341
	  101 D(7,1,2,10)     =   -166.942097    -0.000000    -0.084099  -167.026196
	  102 D(7,1,3,11)     =    166.943312     0.000000     0.082177   167.025489
	  103 D(7,1,3,12)     =     50.937786     0.000000     0.082015    51.019800
	  104 D(8,1,2,9)      =     66.451860    -0.000000    -0.058092    66.393768
	  105 D(8,1,2,10)     =    -49.553441     0.000000    -0.058647   -49.612088
	  106 D(8,1,3,11)     =     49.554547    -0.000000     0.056824    49.611371
	  107 D(8,1,3,12)     =    -66.450980     0.000000     0.056662   -66.394318
	  108 D(8,1,7,19)     =    179.993421     0.000000     0.008484   180.001904
	  109 D(8,1,7,20)     =    -59.801109    -0.000000     0.007278   -59.793830
	  110 D(8,1,7,21)     =     59.787997     0.000000     0.009601    59.797598
	  111 D(9,2,4,13)     =     57.090433    -0.000000     0.014074    57.104507
	  112 D(9,2,4,14)     =    -59.311000    -0.000000     0.017004   -59.293996
	  113 D(10,2,4,13)    =    173.296436     0.000000     0.032778   173.329214
	  114 D(10,2,4,14)    =     56.895003     0.000000     0.035708    56.930710
	  115 D(11,3,5,15)    =    -56.897245    -0.000000    -0.032185   -56.929430
	  116 D(11,3,5,16)    =   -173.298897    -0.000000    -0.028888  -173.327785
	  117 D(12,3,5,15)    =     59.308979     0.000000    -0.013863    59.295117
	  118 D(12,3,5,16)    =    -57.092673     0.000000    -0.010565   -57.103238
	  119 D(13,4,6,17)    =   -173.239338    -0.000000     0.023996  -173.215342
	  120 D(13,4,6,18)    =    -56.535592    -0.000000     0.021562   -56.514030
	  121 D(14,4,6,17)    =    -56.910951    -0.000000     0.021006   -56.889946
	  122 D(14,4,6,18)    =     59.792794    -0.000000     0.018572    59.811366
	  123 D(15,5,6,17)    =     56.912129     0.000000    -0.022761    56.889368
	  124 D(15,5,6,18)    =    -59.791696     0.000000    -0.020259   -59.811955
	  125 D(16,5,6,17)    =    173.240792     0.000000    -0.026252   173.214540
	  126 D(16,5,6,18)    =     56.536967     0.000000    -0.023750    56.513217
	  127 R(6,7)          =      3.777087     0.000171    -0.000977     3.776110
	 ---------------------------------------------------------------------------
	Successfully symmetrized geometry.

  ==> Convergence Check <==

  Measures of convergence in internal coordinates in au.
  Criteria marked as inactive (o), active & met (*), and active & unmet ( ).
  ---------------------------------------------------------------------------------------------
   Step     Total Energy     Delta E     MAX Force     RMS Force      MAX Disp      RMS Disp   
  ---------------------------------------------------------------------------------------------
    Convergence Criteria    1.00e-06 *    3.00e-04 *             o    1.20e-03 *             o
  ---------------------------------------------------------------------------------------------
      4    -274.94417734   -4.06e-07 *    4.48e-05 *    1.46e-05 o    1.85e-03      5.60e-04 o  ~
  ---------------------------------------------------------------------------------------------


  **** Optimization is complete! (in 4 steps) ****

  ==> Optimization Summary <==

  Measures of convergence in internal coordinates in au.
  --------------------------------------------------------------------------------------------------------------- ~
   Step         Total Energy             Delta E       MAX Force       RMS Force        MAX Disp        RMS Disp  ~
  --------------------------------------------------------------------------------------------------------------- ~
      1    -274.943624715645   -274.943624715645      0.00374433      0.00093408      0.05100614      0.01930445  ~
      2    -274.944132395876     -0.000507680231      0.00100066      0.00030060      0.02243447      0.00467668  ~
      3    -274.944176928891     -0.000044533015      0.00031843      0.00006891      0.00363186      0.00136286  ~
      4    -274.944177335122     -0.000000406230      0.00004476      0.00001463      0.00184688      0.00055994  ~
  --------------------------------------------------------------------------------------------------------------- ~

	Writing optimization data to binary file.
	Final energy is   -274.9441773351218
	Final (previous) structure:
	Cartesian Geometry (in Angstrom)
	    C    -1.1095788642   0.0000421088  -0.5173760840
	    C    -0.2371911735   1.2538500872  -0.6256558751
	    C    -0.2373065295  -1.2538472571  -0.6256133330
	    C     0.9232150254   1.2569141188   0.3629919555
	    C     0.9230786172  -1.2569833692   0.3630567435
	    C     1.7717397798  -0.0000842569   0.2209982710
	    C    -1.9692772405   0.0001028398   0.7417473964
	    H    -1.7957314975   0.0000606184  -1.3728857462
	    H    -0.8538328424   2.1487527424  -0.4904864530
	    H     0.1711017413   1.3094516562  -1.6424906919
	    H     0.1710005695  -1.3095119892  -1.6424391841
	    H    -0.8540315594  -2.1486900871  -0.4904311434
	    H     0.5410089072   1.3223877590   1.3883671425
	    H     1.5377490490   2.1493641079   0.2101511831
	    H     1.5375182250  -2.1495093449   0.2102817571
	    H     0.5408436961  -1.3223517185   1.3884288345
	    H     2.2502712986  -0.0001344288  -0.7670543102
	    H     2.5806050116  -0.0001088940   0.9580214078
	    H    -1.3702856024  -0.0000265841   1.6551935732
	    H    -2.6130476994   0.8833324610   0.7731000135
	    H    -2.6132983885  -0.8829480869   0.7730149087
	Saving final (previous) structure.
			--------------------------
			 OPTKING Finished Execution 
			--------------------------

    Final optimized geometry and variables:
    Molecular point group: c1
    Full point group: C1

    Geometry (in Angstrom), charge = 0, multiplicity = 1:

    C           -1.109578868571     0.000042108782    -0.517376086065
    C           -0.237191174454     1.253850092107    -0.625655877514
    C           -0.237306530418    -1.253847262078    -0.625613335457
    C            0.923215029038     1.256914123696     0.362991956927
    C            0.923078620816    -1.256983374139     0.363056744934
    C            1.771739786759    -0.000084256918     0.220998271916
    C           -1.969277248238     0.000102839799     0.741747399326
    H           -1.795731504527     0.000060618381    -1.372885751604
    H           -0.853832845747     2.148752750821    -0.490486454961
    H            0.171101741996     1.309451661298    -1.642490698400
    H            0.171000570128    -1.309511994346    -1.642439190599
    H           -0.854031562778    -2.148690095496    -0.490431145347
    H            0.541008909369     1.322387764172     1.388367147947
    H            1.537749055035     2.149364116308     0.210151183894
    H            1.537518231046    -2.149509353391     0.210281757938
    H            0.540843698274    -1.322351723680     1.388428839917
    H            2.250271307469    -0.000134428767    -0.767054313174
    H            2.580605021790    -0.000108894032     0.958021411521
    H           -1.370285607797    -0.000026584080     1.655193579747
    H           -2.613047709704     0.883332464467     0.773100016532
    H           -2.613298398758    -0.882948090407     0.773014911745

	Removing binary optimization data file.
	Cleaning optimization helper files.

    Psi4 stopped on: Tuesday, 18 January 2022 09:26PM
    Psi4 wall time for execution: 0:03:08.67

*** Psi4 exiting successfully. Buy a developer a beer!
