
    -----------------------------------------------------------------------
          Psi4: An Open-Source Ab Initio Electronic Structure Package
                               Psi4 1.3.2 release

                         Git: Rev {} zzzzzzz 


    R. M. Parrish, L. A. Burns, D. G. A. Smith, A. C. Simmonett,
    A. E. DePrince III, E. G. Hohenstein, U. Bozkaya, A. Yu. Sokolov,
    R. Di Remigio, R. M. Richard, J. F. Gonthier, A. M. James,
    H. R. McAlexander, A. Kumar, M. Saitow, X. Wang, B. P. Pritchard,
    P. Verma, H. F. Schaefer III, K. Patkowski, R. A. King, E. F. Valeev,
    F. A. Evangelista, J. M. Turney, T. D. Crawford, and C. D. Sherrill,
    J. Chem. Theory Comput. 13(7) pp 3185--3197 (2017).
    (doi: 10.1021/acs.jctc.7b00174)


                         Additional Contributions by
    P. Kraus, H. Kruse, M. H. Lechner, M. C. Schieber, R. A. Shaw,
    A. Alenaizan, R. Galvelis, Z. L. Glick, S. Lehtola, and J. P. Misiewicz

    -----------------------------------------------------------------------


    Psi4 started on: Saturday, 10 July 2021 03:09PM

    Process ID: 1799772
    Host:       thinkpad
    PSIDATADIR: /usr/share/psi4
    Memory:     500.0 MiB
    Threads:    4
    
  ==> Input File <==

--------------------------------------------------------------------------
memory 8 gb

molecule {
symmetry c1
Cr        0.48028725377749    0.32716919378518    0.12128381663197
O         1.51332165941332    1.03448648135578   -0.78955553051410
O        -0.57831537187616    1.32157128739802    0.65757817076212
F        -0.29602430869141   -0.85637252313759   -0.76598418135575
F         1.28459076737678   -0.35182443940140    1.41848772447575
}

set basis def2-SV(P)
set geom_maxiter 250

# Use a (75,302) quadrature grid
set dft_radial_points 75
set dft_spherical_points 302

# Very tight geometry optimization
set g_convergence gau_verytight
# Increase allowed number of geometry optimization steps
set geom_maxiter 250

# Use the Hueckel type guess
set guess huckel

my_dft = {
    "name": "my pbe",
    "x_functionals": {"gga_x_pbe": {}},
    "c_functionals": {"gga_c_pbe": {}}
}
optimize('scf', dft_functional=my_dft)
--------------------------------------------------------------------------

  Memory set to   7.451 GiB by Python driver.
gradient() will perform analytic gradient computation.

*** tstart() called on thinkpad
*** at Sat Jul 10 15:09:33 2021

   => Loading Basis Set <=

    Name: DEF2-SV(P)
    Role: ORBITAL
    Keyword: BASIS
    atoms 1   entry CR         line   606 file /usr/share/psi4/basis/def2-sv_p_.gbs 
    atoms 2-3 entry O          line   128 file /usr/share/psi4/basis/def2-sv_p_.gbs 
    atoms 4-5 entry F          line   148 file /usr/share/psi4/basis/def2-sv_p_.gbs 


         ---------------------------------------------------------
                                   SCF
               by Justin Turney, Rob Parrish, Andy Simmonett
                          and Daniel G. A. Smith
                              RKS Reference
                        4 Threads,   7629 MiB Core
         ---------------------------------------------------------

  ==> Geometry <==

    Molecular point group: c1
    Full point group: C1

    Geometry (in Angstrom), charge = 0, multiplicity = 1:

       Center              X                  Y                   Z               Mass       
    ------------   -----------------  -----------------  -----------------  -----------------
         CR          -0.001007494106     0.066977222278    -0.014740872913    51.940506230000
         O            1.032026911530     0.774294509849    -0.925580220059    15.994914619570
         O           -1.059610119760     1.061379315891     0.521553481217    15.994914619570
         F           -0.777319056575    -1.116564494645    -0.902008870901    18.998403162730
         F            0.803296019493    -0.612016410908     1.282463034931    18.998403162730

  Running in c1 symmetry.

  Rotational constants: A =      0.15233  B =      0.13609  C =      0.12992 [cm^-1]
  Rotational constants: A =   4566.71939  B =   4079.72696  C =   3895.02954 [MHz]
  Nuclear repulsion =  355.181605515257786

  Charge       = 0
  Multiplicity = 1
  Electrons    = 58
  Nalpha       = 29
  Nbeta        = 29

  ==> Algorithm <==

  SCF Algorithm Type is DF.
  DIIS enabled.
  MOM disabled.
  Fractional occupation disabled.
  Guess Type is HUCKEL.
  Energy threshold   = 1.00e-08
  Density threshold  = 1.00e-08
  Integral threshold = 0.00e+00

  ==> Primary Basis <==

  Basis Set: DEF2-SV(P)
    Blend: DEF2-SV(P)
    Number of shells: 34
    Number of basis function: 80
    Number of Cartesian functions: 86
    Spherical Harmonics?: true
    Max angular momentum: 2

  ==> DFT Potential <==

   => Composite Functional: MY PBE <= 

    Perdew, Burke & Ernzerhof
    J. P. Perdew, K. Burke, and M. Ernzerhof, Phys. Rev. Lett. 77, 3865 (1996)
    J. P. Perdew, K. Burke, and M. Ernzerhof, Phys. Rev. Lett. 78, 1396 (1997)

    Deriv               =              1
    GGA                 =           TRUE
    Meta                =          FALSE

    Exchange Hybrid     =          FALSE
    MP2 Hybrid          =          FALSE

   => Exchange Functionals <=

    1.0000     XC_gga_x_pbe

   => Correlation Functionals <=

    1.0000     XC_gga_c_pbe

   => Molecular Quadrature <=

    Radial Scheme          =       TREUTLER
    Pruning Scheme         =           FLAT
    Nuclear Scheme         =       TREUTLER

    BS radius alpha        =              1
    Pruning alpha          =              1
    Radial Points          =             75
    Spherical Points       =            302
    Total Points           =         113250
    Total Blocks           =            920
    Max Points             =            256
    Max Functions          =             77

   => Loading Basis Set <=

    Name: (DEF2-SV(P) AUX)
    Role: JKFIT
    Keyword: DF_BASIS_SCF
    atoms 1   entry CR         line  1731 file /usr/share/psi4/basis/def2-sv_p_-jkfit.gbs 
    atoms 2-3 entry O          line   323 file /usr/share/psi4/basis/def2-sv_p_-jkfit.gbs 
    atoms 4-5 entry F          line   383 file /usr/share/psi4/basis/def2-sv_p_-jkfit.gbs 

  ==> Pre-Iterations <==

   -------------------------------------------------------
    Irrep   Nso     Nmo     Nalpha   Nbeta   Ndocc  Nsocc
   -------------------------------------------------------
     A         80      80       0       0       0       0
   -------------------------------------------------------
    Total      80      80      29      29      29       0
   -------------------------------------------------------

  ==> Integral Setup <==

  DFHelper Memory: AOs need 0.031 GiB; user supplied 5.397 GiB. Using in-core AOs.

  ==> MemDFJK: Density-Fitted J/K Matrices <==

    J tasked:                   Yes
    K tasked:                    No
    wK tasked:                   No
    OpenMP threads:               4
    Memory [MiB]:              5526
    Algorithm:                 Core
    Schwarz Cutoff:           1E-12
    Mask sparsity (%):       1.0938
    Fitting Condition:        1E-10

   => Auxiliary Basis Set <=

  Basis Set: (DEF2-SV(P) AUX)
    Blend: DEF2-SV_P_-JKFIT
    Number of shells: 158
    Number of basis function: 572
    Number of Cartesian functions: 749
    Spherical Harmonics?: true
    Max angular momentum: 6

  Cached 100.0% of DFT collocation blocks in 0.191 [GiB].

  Minimum eigenvalue in the overlap matrix is 1.8951953410E-02.
  Using Symmetric Orthogonalization.

  SCF Guess: Huckel guess via on-the-fly atomic UHF (doi:10.1021/acs.jctc.8b01089).

  ==> Iterations <==

                           Total Energy        Delta E     RMS |[F,P]|

   @DF-RKS iter   1: -1392.80968124093556   -1.39281e+03   2.48054e-02 DIIS
   @DF-RKS iter   2: -1377.54990491059471    1.52598e+01   5.98103e-02 DIIS
   @DF-RKS iter   3: -1391.09055735225115   -1.35407e+01   2.92781e-02 DIIS
   @DF-RKS iter   4: -1393.59906637226391   -2.50851e+00   8.23380e-03 DIIS
   @DF-RKS iter   5: -1392.40147248476569    1.19759e+00   2.43975e-02 DIIS
   @DF-RKS iter   6: -1393.65341519922822   -1.25194e+00   7.34598e-03 DIIS
   @DF-RKS iter   7: -1393.51360848831632    1.39807e-01   1.03777e-02 DIIS
   @DF-RKS iter   8: -1393.52816563265173   -1.45571e-02   9.96284e-03 DIIS
   @DF-RKS iter   9: -1393.73742772841456   -2.09262e-01   3.34660e-03 DIIS
   @DF-RKS iter  10: -1393.75143718384993   -1.40095e-02   2.22848e-03 DIIS
   @DF-RKS iter  11: -1393.75817522767625   -6.73804e-03   1.35790e-03 DIIS
   @DF-RKS iter  12: -1393.76168639925254   -3.51117e-03   3.68370e-04 DIIS
   @DF-RKS iter  13: -1393.76201086319770   -3.24464e-04   5.70877e-05 DIIS
   @DF-RKS iter  14: -1393.76201818906020   -7.32586e-06   1.85046e-05 DIIS
   @DF-RKS iter  15: -1393.76201897377587   -7.84716e-07   9.35045e-06 DIIS
   @DF-RKS iter  16: -1393.76201913539899   -1.61623e-07   2.84940e-06 DIIS
   @DF-RKS iter  17: -1393.76201915129514   -1.58961e-08   5.65643e-07 DIIS
   @DF-RKS iter  18: -1393.76201915193269   -6.37556e-10   7.24520e-08 DIIS
   @DF-RKS iter  19: -1393.76201915194201   -9.32232e-12   1.15436e-08 DIIS
   @DF-RKS iter  20: -1393.76201915194338   -1.36424e-12   1.52395e-09 DIIS
  Energy and wave function converged.


  ==> Post-Iterations <==

    Orbital Energies [Eh]
    ---------------------

    Doubly Occupied:                                                      

       1A   -214.705322     2A    -24.510319     3A    -24.310424  
       4A    -24.310424     5A    -20.887980     6A    -20.887382  
       7A    -20.883204     8A    -18.842801     9A    -18.842791  
      10A     -2.917546    11A     -1.912393    12A     -1.911855  
      13A     -1.908516    14A     -1.082771    15A     -1.077452  
      16A     -0.886554    17A     -0.874270    18A     -0.476398  
      19A     -0.470123    20A     -0.454915    21A     -0.453364  
      22A     -0.451236    23A     -0.411974    24A     -0.403976  
      25A     -0.387289    26A     -0.369160    27A     -0.355696  
      28A     -0.354986    29A     -0.315717  

    Virtual:                                                              

      30A     -0.209122    31A     -0.191881    32A     -0.162811  
      33A     -0.124401    34A     -0.108185    35A     -0.007713  
      36A      0.152937    37A      0.195805    38A      0.198597  
      39A      0.199699    40A      0.541701    41A      0.542204  
      42A      0.555213    43A      0.601470    44A      0.602962  
      45A      0.876766    46A      0.881713    47A      0.920510  
      48A      0.942327    49A      0.949182    50A      0.972957  
      51A      1.070203    52A      1.098253    53A      1.147339  
      54A      1.169971    55A      1.186499    56A      1.194389  
      57A      1.293722    58A      1.371936    59A      1.598724  
      60A      1.611844    61A      2.432176    62A      2.438950  
      63A      2.464914    64A      2.477490    65A      2.481694  
      66A      2.514795    67A      2.540015    68A      2.567675  
      69A      2.570929    70A      2.674549    71A      2.901285  
      72A      2.903135    73A      2.913387    74A      2.917503  
      75A      2.921507    76A      2.956578    77A      2.976864  
      78A      3.010236    79A      3.136801    80A      3.153727  

    Final Occupation by Irrep:
              A 
    DOCC [    29 ]

  @DF-RKS Final Energy: -1393.76201915194338

   => Energetics <=

    Nuclear Repulsion Energy =            355.1816055152577860
    One-Electron Energy =               -2625.7649091028806652
    Two-Electron Energy =                 962.7569063768347633
    DFT Exchange-Correlation Energy =     -85.9356219411549489
    Empirical Dispersion Energy =           0.0000000000000000
    VV10 Nonlocal Energy =                  0.0000000000000000
    Total Energy =                      -1393.7620191519433774

Computation Completed


Properties will be evaluated at   0.000000,   0.000000,   0.000000 [a0]

Properties computed using the SCF density matrix

  Nuclear Dipole Moment: [e a0]
     X:    -0.0209      Y:     1.3901      Z:    -0.3060

  Electronic Dipole Moment: [e a0]
     X:     0.0230      Y:    -1.5299      Z:     0.3367

  Dipole Moment: [e a0]
     X:     0.0021      Y:    -0.1398      Z:     0.0308     Total:     0.1432

  Dipole Moment: [D]
     X:     0.0053      Y:    -0.3554      Z:     0.0782     Total:     0.3639


*** tstop() called on thinkpad at Sat Jul 10 15:09:42 2021
Module time:
	user time   =      18.23 seconds =       0.30 minutes
	system time =       0.31 seconds =       0.01 minutes
	total time  =          9 seconds =       0.15 minutes
Total time:
	user time   =      18.23 seconds =       0.30 minutes
	system time =       0.31 seconds =       0.01 minutes
	total time  =          9 seconds =       0.15 minutes

*** tstart() called on thinkpad
*** at Sat Jul 10 15:09:42 2021


         ------------------------------------------------------------
                                   SCF GRAD                          
                          Rob Parrish, Justin Turney,                
                       Andy Simmonett, and Alex Sokolov              
         ------------------------------------------------------------

  ==> Geometry <==

    Molecular point group: c1
    Full point group: C1

    Geometry (in Angstrom), charge = 0, multiplicity = 1:

       Center              X                  Y                   Z               Mass       
    ------------   -----------------  -----------------  -----------------  -----------------
         CR          -0.001007494106     0.066977222278    -0.014740872913    51.940506230000
         O            1.032026911530     0.774294509849    -0.925580220059    15.994914619570
         O           -1.059610119760     1.061379315891     0.521553481217    15.994914619570
         F           -0.777319056575    -1.116564494645    -0.902008870901    18.998403162730
         F            0.803296019493    -0.612016410908     1.282463034931    18.998403162730

  Nuclear repulsion =  355.181605515257786

  ==> Basis Set <==

  Basis Set: DEF2-SV(P)
    Blend: DEF2-SV(P)
    Number of shells: 34
    Number of basis function: 80
    Number of Cartesian functions: 86
    Spherical Harmonics?: true
    Max angular momentum: 2

  ==> DFJKGrad: Density-Fitted SCF Gradients <==

    Gradient:                    1
    J tasked:                  Yes
    K tasked:                   No
    wK tasked:                  No
    OpenMP threads:              4
    Integrals threads:           4
    Memory [MiB]:             5722
    Schwarz Cutoff:          0E+00
    Fitting Condition:       1E-10

   => Auxiliary Basis Set <=

  Basis Set: (DEF2-SV(P) AUX)
    Blend: DEF2-SV_P_-JKFIT
    Number of shells: 158
    Number of basis function: 572
    Number of Cartesian functions: 749
    Spherical Harmonics?: true
    Max angular momentum: 6

  ==> DFT Potential <==

   => Composite Functional: MY PBE <= 

    Perdew, Burke & Ernzerhof
    J. P. Perdew, K. Burke, and M. Ernzerhof, Phys. Rev. Lett. 77, 3865 (1996)
    J. P. Perdew, K. Burke, and M. Ernzerhof, Phys. Rev. Lett. 78, 1396 (1997)

    Deriv               =              1
    GGA                 =           TRUE
    Meta                =          FALSE

    Exchange Hybrid     =          FALSE
    MP2 Hybrid          =          FALSE

   => Exchange Functionals <=

    1.0000     XC_gga_x_pbe

   => Correlation Functionals <=

    1.0000     XC_gga_c_pbe

   => Molecular Quadrature <=

    Radial Scheme          =       TREUTLER
    Pruning Scheme         =           FLAT
    Nuclear Scheme         =       TREUTLER

    BS radius alpha        =              1
    Pruning alpha          =              1
    Radial Points          =             75
    Spherical Points       =            302
    Total Points           =         113250
    Total Blocks           =            920
    Max Points             =            256
    Max Functions          =             77


  -Total Gradient:
     Atom            X                  Y                   Z
    ------   -----------------  -----------------  -----------------
       1       -0.000018025265     0.001181320730    -0.000259769059
       2       -0.011433354674    -0.015862987759     0.011936759921
       3        0.011958367544    -0.019073097856    -0.004247366493
       4        0.013547632415     0.021235758181     0.015368226078
       5       -0.014053183061     0.012425393135    -0.022777269412


*** tstop() called on thinkpad at Sat Jul 10 15:09:44 2021
Module time:
	user time   =       4.37 seconds =       0.07 minutes
	system time =       0.03 seconds =       0.00 minutes
	total time  =          2 seconds =       0.03 minutes
Total time:
	user time   =      22.60 seconds =       0.38 minutes
	system time =       0.34 seconds =       0.01 minutes
	total time  =         11 seconds =       0.18 minutes

			-----------------------------------------
			 OPTKING 2.0: for geometry optimizations 
			  - R.A. King,  Bethel University        
			-----------------------------------------

	Internal coordinates to be generated automatically.
	Detected frag 1 with atoms:  1 2 3 4 5
	---Fragment 1 Bond Connectivity---
	 1 : 2 3 4 5
	 2 : 1
	 3 : 1
	 4 : 1
	 5 : 1

	---Fragment 1 Geometry and Gradient---
	 CR         -0.0019038879        0.1265686067       -0.0278562127
	 O           1.9502482169        1.4632045641       -1.7490931231
	 O          -2.0023729261        2.0057162223        0.9855932393
	 F          -1.4689201290       -2.1100010963       -1.7045497287
	 F           1.5180094745       -1.1565434009        2.4235039020
	            -0.0000180253        0.0011813207       -0.0002597691
	            -0.0114333547       -0.0158629878        0.0119367599
	             0.0119583675       -0.0190730979       -0.0042473665
	             0.0135476324        0.0212357582        0.0153682261
	            -0.0140531831        0.0124253931       -0.0227772694

	Previous optimization step data not found.  Starting new optimization.

	---Fragment 1 Intrafragment Coordinates---
	 - Coordinate -           - BOHR/RAD -       - ANG/DEG -
	 R(1,2)           =         2.925773	       1.548253
	 R(1,3)           =         2.925774	       1.548253
	 R(1,4)           =         3.156847	       1.670531
	 R(1,5)           =         3.156846	       1.670531
	 B(2,1,3)         =         1.946113	     111.504060
	 B(2,1,4)         =         1.897868	     108.739823
	 B(2,1,5)         =         1.897867	     108.739770
	 B(3,1,4)         =         1.897872	     108.740061
	 B(3,1,5)         =         1.897872	     108.740055
	 B(4,1,5)         =         1.926457	     110.377858

	Current energy   :     -1393.7620191519

	Generating empirical Hessian (Schlegel '84) for each fragment.
	Taking RFO optimization step.
	Going to follow RFO solution 1.
	Using RFO vector 1.
	Norm of target step-size    0.07741
	Projected energy change by RFO approximation:        -0.0029632816

	Back-transformation to cartesian coordinates...
	Successfully converged to displaced geometry.

	--- Internal Coordinate Step in ANG or DEG, aJ/ANG or AJ/DEG ---
	 ---------------------------------------------------------------------------
	   Coordinate                Previous        Force       Change         New 
	   ----------                --------       ------       ------       ------
	    1 R(1,2)          =      1.548253     0.180323     0.004211     1.552464
	    2 R(1,3)          =      1.548253     0.180321     0.004211     1.552464
	    3 R(1,4)          =      1.670531     0.243160     0.011603     1.682134
	    4 R(1,5)          =      1.670531     0.243161     0.011603     1.682134
	    5 B(2,1,3)        =    111.504060    -0.001226    -3.639974   107.864086
	    6 B(2,1,4)        =    108.739823     0.000270     0.786000   109.525823
	    7 B(2,1,5)        =    108.739770     0.000270     0.786048   109.525818
	    8 B(3,1,4)        =    108.740061     0.000270     0.785805   109.525866
	    9 B(3,1,5)        =    108.740055     0.000270     0.785817   109.525872
	   10 B(4,1,5)        =    110.377858     0.000145     0.441718   110.819577
	 ---------------------------------------------------------------------------
	Successfully symmetrized geometry.

  ==> Convergence Check <==

  Measures of convergence in internal coordinates in au.
  Criteria marked as inactive (o), active & met (*), and active & unmet ( ).
  --------------------------------------------------------------------------------------------- ~
   Step     Total Energy     Delta E     MAX Force     RMS Force      MAX Disp      RMS Disp    ~
  --------------------------------------------------------------------------------------------- ~
    Convergence Criteria             o    2.00e-06 *    1.00e-06 *    6.00e-06 *    4.00e-06 *  ~
  --------------------------------------------------------------------------------------------- ~
      1   -1393.76201915   -1.39e+03 o    2.95e-02      1.74e-02      6.35e-02      2.44e-02    ~
  ---------------------------------------------------------------------------------------------

	Writing optimization data to binary file.
	Structure for next step:
	Cartesian Geometry (in Angstrom)
	   CR    -0.0007633206   0.0508087706  -0.0111828865
	    O     1.0112845101   0.8026048842  -0.9171109436
	    O    -1.0396338565   1.0840985021   0.5018518033
	    F    -0.7846739830  -1.1364259966  -0.9086974176
	    F     0.8111729106  -0.6270160186   1.2968259967
			--------------------------
			 OPTKING Finished Execution 
			--------------------------

    Structure for next step:
    Molecular point group: c1
    Full point group: C1

    Geometry (in Angstrom), charge = 0, multiplicity = 1:

    CR          -0.000848163711     0.056434175524    -0.012420871353
    O            1.011199670972     0.808230292087    -0.918348931945
    O           -1.039718703728     1.089723911077     0.500613820531
    F           -0.784758829164    -1.130800596352    -0.909935405930
    F            0.811088070743    -0.621390616338     1.295588017036

gradient() will perform analytic gradient computation.

*** tstart() called on thinkpad
*** at Sat Jul 10 15:09:44 2021

   => Loading Basis Set <=

    Name: DEF2-SV(P)
    Role: ORBITAL
    Keyword: BASIS
    atoms 1   entry CR         line   606 file /usr/share/psi4/basis/def2-sv_p_.gbs 
    atoms 2-3 entry O          line   128 file /usr/share/psi4/basis/def2-sv_p_.gbs 
    atoms 4-5 entry F          line   148 file /usr/share/psi4/basis/def2-sv_p_.gbs 


         ---------------------------------------------------------
                                   SCF
               by Justin Turney, Rob Parrish, Andy Simmonett
                          and Daniel G. A. Smith
                              RKS Reference
                        4 Threads,   7629 MiB Core
         ---------------------------------------------------------

  ==> Geometry <==

    Molecular point group: c1
    Full point group: C1

    Geometry (in Angstrom), charge = 0, multiplicity = 1:

       Center              X                  Y                   Z               Mass       
    ------------   -----------------  -----------------  -----------------  -----------------
         CR          -0.000848163711     0.056434175524    -0.012420871353    51.940506230000
         O            1.011199670972     0.808230292087    -0.918348931945    15.994914619570
         O           -1.039718703728     1.089723911077     0.500613820531    15.994914619570
         F           -0.784758829164    -1.130800596352    -0.909935405930    18.998403162730
         F            0.811088070743    -0.621390616338     1.295588017036    18.998403162730

  Running in c1 symmetry.

  Rotational constants: A =      0.15140  B =      0.13679  C =      0.12596 [cm^-1]
  Rotational constants: A =   4538.91858  B =   4100.77575  C =   3776.21924 [MHz]
  Nuclear repulsion =  353.426705754456236

  Charge       = 0
  Multiplicity = 1
  Electrons    = 58
  Nalpha       = 29
  Nbeta        = 29

  ==> Algorithm <==

  SCF Algorithm Type is DF.
  DIIS enabled.
  MOM disabled.
  Fractional occupation disabled.
  Guess Type is READ.
  Energy threshold   = 1.00e-08
  Density threshold  = 1.00e-08
  Integral threshold = 0.00e+00

  ==> Primary Basis <==

  Basis Set: DEF2-SV(P)
    Blend: DEF2-SV(P)
    Number of shells: 34
    Number of basis function: 80
    Number of Cartesian functions: 86
    Spherical Harmonics?: true
    Max angular momentum: 2

  ==> DFT Potential <==

   => Composite Functional: MY PBE <= 

    Perdew, Burke & Ernzerhof
    J. P. Perdew, K. Burke, and M. Ernzerhof, Phys. Rev. Lett. 77, 3865 (1996)
    J. P. Perdew, K. Burke, and M. Ernzerhof, Phys. Rev. Lett. 78, 1396 (1997)

    Deriv               =              1
    GGA                 =           TRUE
    Meta                =          FALSE

    Exchange Hybrid     =          FALSE
    MP2 Hybrid          =          FALSE

   => Exchange Functionals <=

    1.0000     XC_gga_x_pbe

   => Correlation Functionals <=

    1.0000     XC_gga_c_pbe

   => Molecular Quadrature <=

    Radial Scheme          =       TREUTLER
    Pruning Scheme         =           FLAT
    Nuclear Scheme         =       TREUTLER

    BS radius alpha        =              1
    Pruning alpha          =              1
    Radial Points          =             75
    Spherical Points       =            302
    Total Points           =         113250
    Total Blocks           =            921
    Max Points             =            255
    Max Functions          =             77

   => Loading Basis Set <=

    Name: (DEF2-SV(P) AUX)
    Role: JKFIT
    Keyword: DF_BASIS_SCF
    atoms 1   entry CR         line  1731 file /usr/share/psi4/basis/def2-sv_p_-jkfit.gbs 
    atoms 2-3 entry O          line   323 file /usr/share/psi4/basis/def2-sv_p_-jkfit.gbs 
    atoms 4-5 entry F          line   383 file /usr/share/psi4/basis/def2-sv_p_-jkfit.gbs 

   => Loading Basis Set <=

    Name: DEF2-SV(P)
    Role: ORBITAL
    Keyword: BASIS
    atoms 1   entry CR         line   606 file /usr/share/psi4/basis/def2-sv_p_.gbs 
    atoms 2-3 entry O          line   128 file /usr/share/psi4/basis/def2-sv_p_.gbs 
    atoms 4-5 entry F          line   148 file /usr/share/psi4/basis/def2-sv_p_.gbs 

  Reading orbitals from file 180, no projection.

  ==> Pre-Iterations <==

   -------------------------------------------------------
    Irrep   Nso     Nmo     Nalpha   Nbeta   Ndocc  Nsocc
   -------------------------------------------------------
     A         80      80       0       0       0       0
   -------------------------------------------------------
    Total      80      80      29      29      29       0
   -------------------------------------------------------

  ==> Integral Setup <==

  DFHelper Memory: AOs need 0.031 GiB; user supplied 5.397 GiB. Using in-core AOs.

  ==> MemDFJK: Density-Fitted J/K Matrices <==

    J tasked:                   Yes
    K tasked:                    No
    wK tasked:                   No
    OpenMP threads:               4
    Memory [MiB]:              5526
    Algorithm:                 Core
    Schwarz Cutoff:           1E-12
    Mask sparsity (%):       1.2188
    Fitting Condition:        1E-10

   => Auxiliary Basis Set <=

  Basis Set: (DEF2-SV(P) AUX)
    Blend: DEF2-SV_P_-JKFIT
    Number of shells: 158
    Number of basis function: 572
    Number of Cartesian functions: 749
    Spherical Harmonics?: true
    Max angular momentum: 6

  Cached 100.0% of DFT collocation blocks in 0.191 [GiB].

  Minimum eigenvalue in the overlap matrix is 1.8385446455E-02.
  Using Symmetric Orthogonalization.

  SCF Guess: Orbitals guess was supplied from a previous computation.

  ==> Iterations <==

                           Total Energy        Delta E     RMS |[F,P]|

   @DF-RKS iter   0: -1393.75812240057030   -1.39376e+03   1.39545e-03 
   @DF-RKS iter   1: -1393.76358876077052   -5.46636e-03   3.55570e-04 DIIS
   @DF-RKS iter   2: -1393.75088343046696    1.27053e-02   2.40679e-03 DIIS
   @DF-RKS iter   3: -1393.76314383060844   -1.22604e-02   6.00166e-04 DIIS
   @DF-RKS iter   4: -1393.76392139814675   -7.77568e-04   6.46099e-05 DIIS
   @DF-RKS iter   5: -1393.76392963666240   -8.23852e-06   8.02786e-06 DIIS
   @DF-RKS iter   6: -1393.76392975335193   -1.16690e-07   3.94396e-06 DIIS
   @DF-RKS iter   7: -1393.76392977550040   -2.21485e-08   2.09004e-06 DIIS
   @DF-RKS iter   8: -1393.76392978437161   -8.87121e-09   9.68144e-07 DIIS
   @DF-RKS iter   9: -1393.76392978630770   -1.93609e-09   2.30074e-07 DIIS
   @DF-RKS iter  10: -1393.76392978641502   -1.07320e-10   1.52592e-08 DIIS
   @DF-RKS iter  11: -1393.76392978641343    1.59162e-12   8.40157e-09 DIIS
  Energy and wave function converged.


  ==> Post-Iterations <==

    Orbital Energies [Eh]
    ---------------------

    Doubly Occupied:                                                      

       1A   -214.709012     2A    -24.512956     3A    -24.308831  
       4A    -24.308831     5A    -20.890536     6A    -20.890128  
       7A    -20.886198     8A    -18.844824     9A    -18.844817  
      10A     -2.918340    11A     -1.913211    12A     -1.912262  
      13A     -1.908247    14A     -1.080100    15A     -1.074890  
      16A     -0.886550    17A     -0.876408    18A     -0.474146  
      19A     -0.467260    20A     -0.451995    21A     -0.451105  
      22A     -0.449361    23A     -0.410922    24A     -0.402195  
      25A     -0.387538    26A     -0.371155    27A     -0.356617  
      28A     -0.355272    29A     -0.315082  

    Virtual:                                                              

      30A     -0.208870    31A     -0.195735    32A     -0.164692  
      33A     -0.132789    34A     -0.108503    35A     -0.008825  
      36A      0.148974    37A      0.195183    38A      0.197986  
      39A      0.199965    40A      0.540077    41A      0.544676  
      42A      0.562916    43A      0.593545    44A      0.604459  
      45A      0.869429    46A      0.883349    47A      0.920258  
      48A      0.946234    49A      0.947731    50A      0.978505  
      51A      1.070678    52A      1.098611    53A      1.149101  
      54A      1.161646    55A      1.179533    56A      1.186333  
      57A      1.298709    58A      1.367210    59A      1.602195  
      60A      1.613197    61A      2.433145    62A      2.437805  
      63A      2.459682    64A      2.471835    65A      2.480967  
      66A      2.515626    67A      2.540165    68A      2.564120  
      69A      2.572663    70A      2.672703    71A      2.902568  
      72A      2.907292    73A      2.916223    74A      2.918241  
      75A      2.923948    76A      2.963473    77A      2.974816  
      78A      3.006921    79A      3.140046    80A      3.141491  

    Final Occupation by Irrep:
              A 
    DOCC [    29 ]

  @DF-RKS Final Energy: -1393.76392978641343

   => Energetics <=

    Nuclear Repulsion Energy =            353.4267057544562363
    One-Electron Energy =               -2622.2649545380568270
    Two-Electron Energy =                 960.9945022793988301
    DFT Exchange-Correlation Energy =     -85.9201832822116103
    Empirical Dispersion Energy =           0.0000000000000000
    VV10 Nonlocal Energy =                  0.0000000000000000
    Total Energy =                      -1393.7639297864134278

Computation Completed


Properties will be evaluated at   0.000000,   0.000000,   0.000000 [a0]

Properties computed using the SCF density matrix

  Nuclear Dipole Moment: [e a0]
     X:    -0.0218      Y:     1.4519      Z:    -0.3196

  Electronic Dipole Moment: [e a0]
     X:     0.0240      Y:    -1.5961      Z:     0.3513

  Dipole Moment: [e a0]
     X:     0.0022      Y:    -0.1442      Z:     0.0317     Total:     0.1477

  Dipole Moment: [D]
     X:     0.0055      Y:    -0.3665      Z:     0.0807     Total:     0.3753


*** tstop() called on thinkpad at Sat Jul 10 15:09:47 2021
Module time:
	user time   =       7.18 seconds =       0.12 minutes
	system time =       0.06 seconds =       0.00 minutes
	total time  =          3 seconds =       0.05 minutes
Total time:
	user time   =      29.82 seconds =       0.50 minutes
	system time =       0.40 seconds =       0.01 minutes
	total time  =         14 seconds =       0.23 minutes

*** tstart() called on thinkpad
*** at Sat Jul 10 15:09:47 2021


         ------------------------------------------------------------
                                   SCF GRAD                          
                          Rob Parrish, Justin Turney,                
                       Andy Simmonett, and Alex Sokolov              
         ------------------------------------------------------------

  ==> Geometry <==

    Molecular point group: c1
    Full point group: C1

    Geometry (in Angstrom), charge = 0, multiplicity = 1:

       Center              X                  Y                   Z               Mass       
    ------------   -----------------  -----------------  -----------------  -----------------
         CR          -0.000848163711     0.056434175524    -0.012420871353    51.940506230000
         O            1.011199670972     0.808230292087    -0.918348931945    15.994914619570
         O           -1.039718703728     1.089723911077     0.500613820531    15.994914619570
         F           -0.784758829164    -1.130800596352    -0.909935405930    18.998403162730
         F            0.811088070743    -0.621390616338     1.295588017036    18.998403162730

  Nuclear repulsion =  353.426705754456236

  ==> Basis Set <==

  Basis Set: DEF2-SV(P)
    Blend: DEF2-SV(P)
    Number of shells: 34
    Number of basis function: 80
    Number of Cartesian functions: 86
    Spherical Harmonics?: true
    Max angular momentum: 2

  ==> DFJKGrad: Density-Fitted SCF Gradients <==

    Gradient:                    1
    J tasked:                  Yes
    K tasked:                   No
    wK tasked:                  No
    OpenMP threads:              4
    Integrals threads:           4
    Memory [MiB]:             5722
    Schwarz Cutoff:          0E+00
    Fitting Condition:       1E-10

   => Auxiliary Basis Set <=

  Basis Set: (DEF2-SV(P) AUX)
    Blend: DEF2-SV_P_-JKFIT
    Number of shells: 158
    Number of basis function: 572
    Number of Cartesian functions: 749
    Spherical Harmonics?: true
    Max angular momentum: 6

  ==> DFT Potential <==

   => Composite Functional: MY PBE <= 

    Perdew, Burke & Ernzerhof
    J. P. Perdew, K. Burke, and M. Ernzerhof, Phys. Rev. Lett. 77, 3865 (1996)
    J. P. Perdew, K. Burke, and M. Ernzerhof, Phys. Rev. Lett. 78, 1396 (1997)

    Deriv               =              1
    GGA                 =           TRUE
    Meta                =          FALSE

    Exchange Hybrid     =          FALSE
    MP2 Hybrid          =          FALSE

   => Exchange Functionals <=

    1.0000     XC_gga_x_pbe

   => Correlation Functionals <=

    1.0000     XC_gga_c_pbe

   => Molecular Quadrature <=

    Radial Scheme          =       TREUTLER
    Pruning Scheme         =           FLAT
    Nuclear Scheme         =       TREUTLER

    BS radius alpha        =              1
    Pruning alpha          =              1
    Radial Points          =             75
    Spherical Points       =            302
    Total Points           =         113250
    Total Blocks           =            921
    Max Points             =            255
    Max Functions          =             77


  -Total Gradient:
     Atom            X                  Y                   Z
    ------   -----------------  -----------------  -----------------
       1        0.000113391740    -0.007545387641     0.001660795499
       2       -0.010990492497    -0.006516676848     0.009457540849
       3        0.011232132034    -0.009566675081    -0.005917599708
       4        0.009680586429     0.014904545202     0.011035159449
       5       -0.010033924277     0.008611529270    -0.016211099152


*** tstop() called on thinkpad at Sat Jul 10 15:09:48 2021
Module time:
	user time   =       3.68 seconds =       0.06 minutes
	system time =       0.02 seconds =       0.00 minutes
	total time  =          1 seconds =       0.02 minutes
Total time:
	user time   =      33.50 seconds =       0.56 minutes
	system time =       0.42 seconds =       0.01 minutes
	total time  =         15 seconds =       0.25 minutes

			-----------------------------------------
			 OPTKING 2.0: for geometry optimizations 
			  - R.A. King,  Bethel University        
			-----------------------------------------

	Previous internal coordinate definitions found.
	---Fragment 1 Geometry and Gradient---
	 CR         -0.0016027971        0.1066451359       -0.0234720451
	 O           1.9108904363        1.5273338983       -1.7354279690
	 O          -1.9647835976        2.0592797443        0.9460230154
	 F          -1.4829792617       -2.1369034296       -1.7195287091
	 F           1.5327343173       -1.1742580818        2.4483065236
	             0.0001133917       -0.0075453876        0.0016607955
	            -0.0109904925       -0.0065166768        0.0094575408
	             0.0112321320       -0.0095666751       -0.0059175997
	             0.0096805864        0.0149045452        0.0110351594
	            -0.0100339243        0.0086115293       -0.0162110992

	---Fragment 1 Intrafragment Coordinates---
	 - Coordinate -           - BOHR/RAD -       - ANG/DEG -
	 R(1,2)           =         2.933731	       1.552464
	 R(1,3)           =         2.933732	       1.552464
	 R(1,4)           =         3.178772	       1.682134
	 R(1,5)           =         3.178772	       1.682134
	 B(2,1,3)         =         1.882583	     107.864086
	 B(2,1,4)         =         1.911586	     109.525823
	 B(2,1,5)         =         1.911586	     109.525818
	 B(3,1,4)         =         1.911587	     109.525866
	 B(3,1,5)         =         1.911587	     109.525872
	 B(4,1,5)         =         1.934166	     110.819577

	Current energy   :     -1393.7639297864

	Energy change for the previous step:
		Projected    :        -0.0029632816
		Actual       :        -0.0019106345

	Performing BFGS update.
	Previous computed or guess Hessian on step 1.
	Steps to be used in Hessian update: 1
	Taking RFO optimization step.
	Going to follow RFO solution 1.
	Using RFO vector 1.
	Norm of target step-size    0.05048
	Projected energy change by RFO approximation:        -0.0018053531

	Back-transformation to cartesian coordinates...
	Successfully converged to displaced geometry.

	--- Internal Coordinate Step in ANG or DEG, aJ/ANG or AJ/DEG ---
	 ---------------------------------------------------------------------------
	   Coordinate                Previous        Force       Change         New 
	   ----------                --------       ------       ------       ------
	    1 R(1,2)          =      1.552464     0.130384     0.006374     1.558837
	    2 R(1,3)          =      1.552464     0.130383     0.006374     1.558837
	    3 R(1,4)          =      1.682134     0.172452     0.017322     1.699456
	    4 R(1,5)          =      1.682134     0.172452     0.017322     1.699456
	    5 B(2,1,3)        =    107.864086     0.000266    -0.469623   107.394463
	    6 B(2,1,4)        =    109.525823    -0.000040     0.168644   109.694467
	    7 B(2,1,5)        =    109.525818    -0.000040     0.168676   109.694494
	    8 B(3,1,4)        =    109.525866    -0.000040     0.168506   109.694371
	    9 B(3,1,5)        =    109.525872    -0.000040     0.168509   109.694381
	   10 B(4,1,5)        =    110.819577    -0.000095    -0.210290   110.609286
	 ---------------------------------------------------------------------------
	Successfully symmetrized geometry.

  ==> Convergence Check <==

  Measures of convergence in internal coordinates in au.
  Criteria marked as inactive (o), active & met (*), and active & unmet ( ).
  ---------------------------------------------------------------------------------------------
   Step     Total Energy     Delta E     MAX Force     RMS Force      MAX Disp      RMS Disp   
  ---------------------------------------------------------------------------------------------
    Convergence Criteria             o    2.00e-06 *    1.00e-06 *    6.00e-06 *    4.00e-06 *
  ---------------------------------------------------------------------------------------------
      2   -1393.76392979   -1.91e-03 o    2.09e-02      1.18e-02      3.27e-02      1.60e-02    ~
  ---------------------------------------------------------------------------------------------

	Writing optimization data to binary file.
	Structure for next step:
	Cartesian Geometry (in Angstrom)
	   CR    -0.0008677485   0.0577975923  -0.0127214798
	    O     1.0121764188   0.8181392929  -0.9213446501
	    O    -1.0409973931   1.0999406979   0.4991792804
	    F    -0.7917930078  -1.1438418231  -0.9175138748
	    F     0.8184437757  -0.6298385948   1.3078973529
			--------------------------
			 OPTKING Finished Execution 
			--------------------------

    Structure for next step:
    Molecular point group: c1
    Full point group: C1

    Geometry (in Angstrom), charge = 0, multiplicity = 1:

    CR          -0.000869894965     0.057924994617    -0.012749394578
    O            1.012174276272     0.818266698200    -0.921372568435
    O           -1.040999543719     1.100068104341     0.499151367705
    F           -0.791795157385    -1.143714425550    -0.917541793121
    F            0.818441632469    -0.629711195201     1.307869443358

gradient() will perform analytic gradient computation.

*** tstart() called on thinkpad
*** at Sat Jul 10 15:09:48 2021

   => Loading Basis Set <=

    Name: DEF2-SV(P)
    Role: ORBITAL
    Keyword: BASIS
    atoms 1   entry CR         line   606 file /usr/share/psi4/basis/def2-sv_p_.gbs 
    atoms 2-3 entry O          line   128 file /usr/share/psi4/basis/def2-sv_p_.gbs 
    atoms 4-5 entry F          line   148 file /usr/share/psi4/basis/def2-sv_p_.gbs 


         ---------------------------------------------------------
                                   SCF
               by Justin Turney, Rob Parrish, Andy Simmonett
                          and Daniel G. A. Smith
                              RKS Reference
                        4 Threads,   7629 MiB Core
         ---------------------------------------------------------

  ==> Geometry <==

    Molecular point group: c1
    Full point group: C1

    Geometry (in Angstrom), charge = 0, multiplicity = 1:

       Center              X                  Y                   Z               Mass       
    ------------   -----------------  -----------------  -----------------  -----------------
         CR          -0.000869894965     0.057924994617    -0.012749394578    51.940506230000
         O            1.012174276272     0.818266698200    -0.921372568435    15.994914619570
         O           -1.040999543719     1.100068104341     0.499151367705    15.994914619570
         F           -0.791795157385    -1.143714425550    -0.917541793121    18.998403162730
         F            0.818441632469    -0.629711195201     1.307869443358    18.998403162730

  Running in c1 symmetry.

  Rotational constants: A =      0.14937  B =      0.13522  C =      0.12345 [cm^-1]
  Rotational constants: A =   4477.86044  B =   4053.71088  C =   3700.80098 [MHz]
  Nuclear repulsion =  350.871042822154152

  Charge       = 0
  Multiplicity = 1
  Electrons    = 58
  Nalpha       = 29
  Nbeta        = 29

  ==> Algorithm <==

  SCF Algorithm Type is DF.
  DIIS enabled.
  MOM disabled.
  Fractional occupation disabled.
  Guess Type is READ.
  Energy threshold   = 1.00e-08
  Density threshold  = 1.00e-08
  Integral threshold = 0.00e+00

  ==> Primary Basis <==

  Basis Set: DEF2-SV(P)
    Blend: DEF2-SV(P)
    Number of shells: 34
    Number of basis function: 80
    Number of Cartesian functions: 86
    Spherical Harmonics?: true
    Max angular momentum: 2

  ==> DFT Potential <==

   => Composite Functional: MY PBE <= 

    Perdew, Burke & Ernzerhof
    J. P. Perdew, K. Burke, and M. Ernzerhof, Phys. Rev. Lett. 77, 3865 (1996)
    J. P. Perdew, K. Burke, and M. Ernzerhof, Phys. Rev. Lett. 78, 1396 (1997)

    Deriv               =              1
    GGA                 =           TRUE
    Meta                =          FALSE

    Exchange Hybrid     =          FALSE
    MP2 Hybrid          =          FALSE

   => Exchange Functionals <=

    1.0000     XC_gga_x_pbe

   => Correlation Functionals <=

    1.0000     XC_gga_c_pbe

   => Molecular Quadrature <=

    Radial Scheme          =       TREUTLER
    Pruning Scheme         =           FLAT
    Nuclear Scheme         =       TREUTLER

    BS radius alpha        =              1
    Pruning alpha          =              1
    Radial Points          =             75
    Spherical Points       =            302
    Total Points           =         113250
    Total Blocks           =            924
    Max Points             =            256
    Max Functions          =             77

   => Loading Basis Set <=

    Name: (DEF2-SV(P) AUX)
    Role: JKFIT
    Keyword: DF_BASIS_SCF
    atoms 1   entry CR         line  1731 file /usr/share/psi4/basis/def2-sv_p_-jkfit.gbs 
    atoms 2-3 entry O          line   323 file /usr/share/psi4/basis/def2-sv_p_-jkfit.gbs 
    atoms 4-5 entry F          line   383 file /usr/share/psi4/basis/def2-sv_p_-jkfit.gbs 

   => Loading Basis Set <=

    Name: DEF2-SV(P)
    Role: ORBITAL
    Keyword: BASIS
    atoms 1   entry CR         line   606 file /usr/share/psi4/basis/def2-sv_p_.gbs 
    atoms 2-3 entry O          line   128 file /usr/share/psi4/basis/def2-sv_p_.gbs 
    atoms 4-5 entry F          line   148 file /usr/share/psi4/basis/def2-sv_p_.gbs 

  Reading orbitals from file 180, no projection.

  ==> Pre-Iterations <==

   -------------------------------------------------------
    Irrep   Nso     Nmo     Nalpha   Nbeta   Ndocc  Nsocc
   -------------------------------------------------------
     A         80      80       0       0       0       0
   -------------------------------------------------------
    Total      80      80      29      29      29       0
   -------------------------------------------------------

  ==> Integral Setup <==

  DFHelper Memory: AOs need 0.031 GiB; user supplied 5.398 GiB. Using in-core AOs.

  ==> MemDFJK: Density-Fitted J/K Matrices <==

    J tasked:                   Yes
    K tasked:                    No
    wK tasked:                   No
    OpenMP threads:               4
    Memory [MiB]:              5527
    Algorithm:                 Core
    Schwarz Cutoff:           1E-12
    Mask sparsity (%):       1.2188
    Fitting Condition:        1E-10

   => Auxiliary Basis Set <=

  Basis Set: (DEF2-SV(P) AUX)
    Blend: DEF2-SV_P_-JKFIT
    Number of shells: 158
    Number of basis function: 572
    Number of Cartesian functions: 749
    Spherical Harmonics?: true
    Max angular momentum: 6

  Cached 100.0% of DFT collocation blocks in 0.190 [GiB].

  Minimum eigenvalue in the overlap matrix is 1.8324259185E-02.
  Using Symmetric Orthogonalization.

  SCF Guess: Orbitals guess was supplied from a previous computation.

  ==> Iterations <==

                           Total Energy        Delta E     RMS |[F,P]|

   @DF-RKS iter   0: -1393.75590810286371   -1.39376e+03   1.20885e-03 
   @DF-RKS iter   1: -1393.76502631950143   -9.11822e-03   1.94553e-04 DIIS
   @DF-RKS iter   2: -1393.76146756329581    3.55876e-03   1.26102e-03 DIIS
   @DF-RKS iter   3: -1393.76481929906481   -3.35174e-03   3.81614e-04 DIIS
   @DF-RKS iter   4: -1393.76513166308246   -3.12364e-04   6.04718e-05 DIIS
   @DF-RKS iter   5: -1393.76513849301318   -6.82993e-06   1.35994e-05 DIIS
   @DF-RKS iter   6: -1393.76513891958621   -4.26573e-07   5.82900e-07 DIIS
   @DF-RKS iter   7: -1393.76513891527361    4.31260e-09   1.38634e-06 DIIS
   @DF-RKS iter   8: -1393.76513892032790   -5.05429e-09   1.61745e-07 DIIS
   @DF-RKS iter   9: -1393.76513892038133   -5.34328e-11   3.26325e-08 DIIS
   @DF-RKS iter  10: -1393.76513892038383   -2.50111e-12   3.83180e-09 DIIS
  Energy and wave function converged.


  ==> Post-Iterations <==

    Orbital Energies [Eh]
    ---------------------

    Doubly Occupied:                                                      

       1A   -214.714616     2A    -24.517201     3A    -24.307325  
       4A    -24.307324     5A    -20.894910     6A    -20.894533  
       7A    -20.890644     8A    -18.847644     9A    -18.847639  
      10A     -2.919889    11A     -1.914223    12A     -1.913334  
      13A     -1.908756    14A     -1.076642    15A     -1.071794  
      16A     -0.887895    17A     -0.878052    18A     -0.470602  
      19A     -0.463885    20A     -0.449114    21A     -0.447689  
      22A     -0.447553    23A     -0.410463    24A     -0.399889  
      25A     -0.386749    26A     -0.372541    27A     -0.357414  
      28A     -0.355425    29A     -0.316401  

    Virtual:                                                              

      30A     -0.212575    31A     -0.199688    32A     -0.170073  
      33A     -0.138959    34A     -0.113116    35A     -0.009457  
      36A      0.146903    37A      0.193134    38A      0.195298  
      39A      0.199171    40A      0.540150    41A      0.545663  
      42A      0.568832    43A      0.588078    44A      0.601444  
      45A      0.868423    46A      0.883024    47A      0.918080  
      48A      0.943990    49A      0.949424    50A      0.976782  
      51A      1.071897    52A      1.097751    53A      1.144602  
      54A      1.155249    55A      1.172914    56A      1.185422  
      57A      1.299507    58A      1.368280    59A      1.606199  
      60A      1.618919    61A      2.432482    62A      2.436681  
      63A      2.456230    64A      2.470063    65A      2.480233  
      66A      2.513267    67A      2.534837    68A      2.561831  
      69A      2.570880    70A      2.671516    71A      2.904667  
      72A      2.911035    73A      2.919720    74A      2.919805  
      75A      2.927461    76A      2.966120    77A      2.975146  
      78A      3.005983    79A      3.131159    80A      3.136011  

    Final Occupation by Irrep:
              A 
    DOCC [    29 ]

  @DF-RKS Final Energy: -1393.76513892038383

   => Energetics <=

    Nuclear Repulsion Energy =            350.8710428221541520
    One-Electron Energy =               -2617.1487843941899882
    Two-Electron Energy =                 958.4087863757006289
    DFT Exchange-Correlation Energy =     -85.8961837240488251
    Empirical Dispersion Energy =           0.0000000000000000
    VV10 Nonlocal Energy =                  0.0000000000000000
    Total Energy =                      -1393.7651389203838335

Computation Completed


Properties will be evaluated at   0.000000,   0.000000,   0.000000 [a0]

Properties computed using the SCF density matrix

  Nuclear Dipole Moment: [e a0]
     X:    -0.0220      Y:     1.4665      Z:    -0.3228

  Electronic Dipole Moment: [e a0]
     X:     0.0238      Y:    -1.5830      Z:     0.3484

  Dipole Moment: [e a0]
     X:     0.0018      Y:    -0.1165      Z:     0.0256     Total:     0.1193

  Dipole Moment: [D]
     X:     0.0045      Y:    -0.2960      Z:     0.0652     Total:     0.3031


*** tstop() called on thinkpad at Sat Jul 10 15:09:52 2021
Module time:
	user time   =       6.65 seconds =       0.11 minutes
	system time =       0.06 seconds =       0.00 minutes
	total time  =          4 seconds =       0.07 minutes
Total time:
	user time   =      40.19 seconds =       0.67 minutes
	system time =       0.48 seconds =       0.01 minutes
	total time  =         19 seconds =       0.32 minutes

*** tstart() called on thinkpad
*** at Sat Jul 10 15:09:52 2021


         ------------------------------------------------------------
                                   SCF GRAD                          
                          Rob Parrish, Justin Turney,                
                       Andy Simmonett, and Alex Sokolov              
         ------------------------------------------------------------

  ==> Geometry <==

    Molecular point group: c1
    Full point group: C1

    Geometry (in Angstrom), charge = 0, multiplicity = 1:

       Center              X                  Y                   Z               Mass       
    ------------   -----------------  -----------------  -----------------  -----------------
         CR          -0.000869894965     0.057924994617    -0.012749394578    51.940506230000
         O            1.012174276272     0.818266698200    -0.921372568435    15.994914619570
         O           -1.040999543719     1.100068104341     0.499151367705    15.994914619570
         F           -0.791795157385    -1.143714425550    -0.917541793121    18.998403162730
         F            0.818441632469    -0.629711195201     1.307869443358    18.998403162730

  Nuclear repulsion =  350.871042822154152

  ==> Basis Set <==

  Basis Set: DEF2-SV(P)
    Blend: DEF2-SV(P)
    Number of shells: 34
    Number of basis function: 80
    Number of Cartesian functions: 86
    Spherical Harmonics?: true
    Max angular momentum: 2

  ==> DFJKGrad: Density-Fitted SCF Gradients <==

    Gradient:                    1
    J tasked:                  Yes
    K tasked:                   No
    wK tasked:                  No
    OpenMP threads:              4
    Integrals threads:           4
    Memory [MiB]:             5722
    Schwarz Cutoff:          0E+00
    Fitting Condition:       1E-10

   => Auxiliary Basis Set <=

  Basis Set: (DEF2-SV(P) AUX)
    Blend: DEF2-SV_P_-JKFIT
    Number of shells: 158
    Number of basis function: 572
    Number of Cartesian functions: 749
    Spherical Harmonics?: true
    Max angular momentum: 6

  ==> DFT Potential <==

   => Composite Functional: MY PBE <= 

    Perdew, Burke & Ernzerhof
    J. P. Perdew, K. Burke, and M. Ernzerhof, Phys. Rev. Lett. 77, 3865 (1996)
    J. P. Perdew, K. Burke, and M. Ernzerhof, Phys. Rev. Lett. 78, 1396 (1997)

    Deriv               =              1
    GGA                 =           TRUE
    Meta                =          FALSE

    Exchange Hybrid     =          FALSE
    MP2 Hybrid          =          FALSE

   => Exchange Functionals <=

    1.0000     XC_gga_x_pbe

   => Correlation Functionals <=

    1.0000     XC_gga_c_pbe

   => Molecular Quadrature <=

    Radial Scheme          =       TREUTLER
    Pruning Scheme         =           FLAT
    Nuclear Scheme         =       TREUTLER

    BS radius alpha        =              1
    Pruning alpha          =              1
    Radial Points          =             75
    Spherical Points       =            302
    Total Points           =         113250
    Total Blocks           =            924
    Max Points             =            256
    Max Functions          =             77


  -Total Gradient:
     Atom            X                  Y                   Z
    ------   -----------------  -----------------  -----------------
       1        0.000069546532    -0.004605796578     0.001013556446
       2       -0.006069294933    -0.001648398292     0.004772248154
       3        0.006143839155    -0.003324690905    -0.003677595113
       4        0.004141008815     0.006080394409     0.004779183993
       5       -0.004283487659     0.003391214373    -0.006863781859


*** tstop() called on thinkpad at Sat Jul 10 15:09:53 2021
Module time:
	user time   =       3.56 seconds =       0.06 minutes
	system time =       0.01 seconds =       0.00 minutes
	total time  =          1 seconds =       0.02 minutes
Total time:
	user time   =      43.75 seconds =       0.73 minutes
	system time =       0.49 seconds =       0.01 minutes
	total time  =         20 seconds =       0.33 minutes

			-----------------------------------------
			 OPTKING 2.0: for geometry optimizations 
			  - R.A. King,  Bethel University        
			-----------------------------------------

	Previous internal coordinate definitions found.
	---Fragment 1 Geometry and Gradient---
	 CR         -0.0016438632        0.1094623756       -0.0240928640
	 O           1.9127321734        1.5462999572       -1.7411418139
	 O          -1.9672040344        2.0788274366        0.9432593801
	 F          -1.4962759949       -2.1613070300       -1.7339026977
	 F           1.5466305350       -1.1899816971        2.4715150558
	             0.0000695465       -0.0046057966        0.0010135564
	            -0.0060692949       -0.0016483983        0.0047722482
	             0.0061438392       -0.0033246909       -0.0036775951
	             0.0041410088        0.0060803944        0.0047791840
	            -0.0042834877        0.0033912144       -0.0068637819

	---Fragment 1 Intrafragment Coordinates---
	 - Coordinate -           - BOHR/RAD -       - ANG/DEG -
	 R(1,2)           =         2.945776	       1.558837
	 R(1,3)           =         2.945776	       1.558837
	 R(1,4)           =         3.211506	       1.699456
	 R(1,5)           =         3.211505	       1.699456
	 B(2,1,3)         =         1.874387	     107.394463
	 B(2,1,4)         =         1.914530	     109.694467
	 B(2,1,5)         =         1.914530	     109.694494
	 B(3,1,4)         =         1.914528	     109.694371
	 B(3,1,5)         =         1.914528	     109.694381
	 B(4,1,5)         =         1.930496	     110.609286

	Current energy   :     -1393.7651389204

	Energy change for the previous step:
		Projected    :        -0.0018053531
		Actual       :        -0.0012091340

	Performing BFGS update.
	Previous computed or guess Hessian on step 1.
	Steps to be used in Hessian update: 2 1
	Taking RFO optimization step.
	Going to follow RFO solution 1.
	Using RFO vector 1.
	Norm of target step-size    0.03663
	Projected energy change by RFO approximation:        -0.0006613285

	Back-transformation to cartesian coordinates...
	Successfully converged to displaced geometry.

	--- Internal Coordinate Step in ANG or DEG, aJ/ANG or AJ/DEG ---
	 ---------------------------------------------------------------------------
	   Coordinate                Previous        Force       Change         New 
	   ----------                --------       ------       ------       ------
	    1 R(1,2)          =      1.558837     0.061930     0.004476     1.563313
	    2 R(1,3)          =      1.558837     0.061929     0.004476     1.563313
	    3 R(1,4)          =      1.699456     0.072364     0.011475     1.710930
	    4 R(1,5)          =      1.699456     0.072365     0.011475     1.710930
	    5 B(2,1,3)        =    107.394463     0.000445     0.845965   108.240428
	    6 B(2,1,4)        =    109.694467    -0.000093    -0.164885   109.529581
	    7 B(2,1,5)        =    109.694494    -0.000093    -0.164896   109.529598
	    8 B(3,1,4)        =    109.694371    -0.000093    -0.164843   109.529528
	    9 B(3,1,5)        =    109.694381    -0.000093    -0.164851   109.529530
	   10 B(4,1,5)        =    110.609286    -0.000058    -0.163003   110.446283
	 ---------------------------------------------------------------------------
	Successfully symmetrized geometry.

  ==> Convergence Check <==

  Measures of convergence in internal coordinates in au.
  Criteria marked as inactive (o), active & met (*), and active & unmet ( ).
  ---------------------------------------------------------------------------------------------
   Step     Total Energy     Delta E     MAX Force     RMS Force      MAX Disp      RMS Disp   
  ---------------------------------------------------------------------------------------------
    Convergence Criteria             o    2.00e-06 *    1.00e-06 *    6.00e-06 *    4.00e-06 *
  ---------------------------------------------------------------------------------------------
      3   -1393.76513892   -1.21e-03 o    8.78e-03      5.55e-03      2.17e-02      1.16e-02    ~
  ---------------------------------------------------------------------------------------------

	Writing optimization data to binary file.
	Structure for next step:
	Cartesian Geometry (in Angstrom)
	   CR    -0.0009594428   0.0638653169  -0.0140567156
	    O     1.0206859185   0.8165201707  -0.9271278504
	    O    -1.0494938639   1.1006561539   0.5051618086
	    F    -0.7963961173  -1.1475855834  -0.9234243008
	    F     0.8231148181  -0.6306218825   1.3148041132
			--------------------------
			 OPTKING Finished Execution 
			--------------------------

    Structure for next step:
    Molecular point group: c1
    Full point group: C1

    Geometry (in Angstrom), charge = 0, multiplicity = 1:

    CR          -0.000934822174     0.062231832083    -0.013697220065
    O            1.020710543146     0.814886688790    -0.926768358460
    O           -1.049469247414     1.099022673145     0.505521306192
    F           -0.796371499834    -1.149219073074    -0.923064808821
    F            0.823139441958    -0.632255370114     1.315163613919

gradient() will perform analytic gradient computation.

*** tstart() called on thinkpad
*** at Sat Jul 10 15:09:53 2021

   => Loading Basis Set <=

    Name: DEF2-SV(P)
    Role: ORBITAL
    Keyword: BASIS
    atoms 1   entry CR         line   606 file /usr/share/psi4/basis/def2-sv_p_.gbs 
    atoms 2-3 entry O          line   128 file /usr/share/psi4/basis/def2-sv_p_.gbs 
    atoms 4-5 entry F          line   148 file /usr/share/psi4/basis/def2-sv_p_.gbs 


         ---------------------------------------------------------
                                   SCF
               by Justin Turney, Rob Parrish, Andy Simmonett
                          and Daniel G. A. Smith
                              RKS Reference
                        4 Threads,   7629 MiB Core
         ---------------------------------------------------------

  ==> Geometry <==

    Molecular point group: c1
    Full point group: C1

    Geometry (in Angstrom), charge = 0, multiplicity = 1:

       Center              X                  Y                   Z               Mass       
    ------------   -----------------  -----------------  -----------------  -----------------
         CR          -0.000934822174     0.062231832083    -0.013697220065    51.940506230000
         O            1.020710543146     0.814886688790    -0.926768358460    15.994914619570
         O           -1.049469247414     1.099022673145     0.505521306192    15.994914619570
         F           -0.796371499834    -1.149219073074    -0.923064808821    18.998403162730
         F            0.823139441958    -0.632255370114     1.315163613919    18.998403162730

  Running in c1 symmetry.

  Rotational constants: A =      0.14804  B =      0.13340  C =      0.12252 [cm^-1]
  Rotational constants: A =   4438.11321  B =   3999.28013  C =   3673.15100 [MHz]
  Nuclear repulsion =  349.173773802548283

  Charge       = 0
  Multiplicity = 1
  Electrons    = 58
  Nalpha       = 29
  Nbeta        = 29

  ==> Algorithm <==

  SCF Algorithm Type is DF.
  DIIS enabled.
  MOM disabled.
  Fractional occupation disabled.
  Guess Type is READ.
  Energy threshold   = 1.00e-08
  Density threshold  = 1.00e-08
  Integral threshold = 0.00e+00

  ==> Primary Basis <==

  Basis Set: DEF2-SV(P)
    Blend: DEF2-SV(P)
    Number of shells: 34
    Number of basis function: 80
    Number of Cartesian functions: 86
    Spherical Harmonics?: true
    Max angular momentum: 2

  ==> DFT Potential <==

   => Composite Functional: MY PBE <= 

    Perdew, Burke & Ernzerhof
    J. P. Perdew, K. Burke, and M. Ernzerhof, Phys. Rev. Lett. 77, 3865 (1996)
    J. P. Perdew, K. Burke, and M. Ernzerhof, Phys. Rev. Lett. 78, 1396 (1997)

    Deriv               =              1
    GGA                 =           TRUE
    Meta                =          FALSE

    Exchange Hybrid     =          FALSE
    MP2 Hybrid          =          FALSE

   => Exchange Functionals <=

    1.0000     XC_gga_x_pbe

   => Correlation Functionals <=

    1.0000     XC_gga_c_pbe

   => Molecular Quadrature <=

    Radial Scheme          =       TREUTLER
    Pruning Scheme         =           FLAT
    Nuclear Scheme         =       TREUTLER

    BS radius alpha        =              1
    Pruning alpha          =              1
    Radial Points          =             75
    Spherical Points       =            302
    Total Points           =         113250
    Total Blocks           =            921
    Max Points             =            256
    Max Functions          =             77

   => Loading Basis Set <=

    Name: (DEF2-SV(P) AUX)
    Role: JKFIT
    Keyword: DF_BASIS_SCF
    atoms 1   entry CR         line  1731 file /usr/share/psi4/basis/def2-sv_p_-jkfit.gbs 
    atoms 2-3 entry O          line   323 file /usr/share/psi4/basis/def2-sv_p_-jkfit.gbs 
    atoms 4-5 entry F          line   383 file /usr/share/psi4/basis/def2-sv_p_-jkfit.gbs 

   => Loading Basis Set <=

    Name: DEF2-SV(P)
    Role: ORBITAL
    Keyword: BASIS
    atoms 1   entry CR         line   606 file /usr/share/psi4/basis/def2-sv_p_.gbs 
    atoms 2-3 entry O          line   128 file /usr/share/psi4/basis/def2-sv_p_.gbs 
    atoms 4-5 entry F          line   148 file /usr/share/psi4/basis/def2-sv_p_.gbs 

  Reading orbitals from file 180, no projection.

  ==> Pre-Iterations <==

   -------------------------------------------------------
    Irrep   Nso     Nmo     Nalpha   Nbeta   Ndocc  Nsocc
   -------------------------------------------------------
     A         80      80       0       0       0       0
   -------------------------------------------------------
    Total      80      80      29      29      29       0
   -------------------------------------------------------

  ==> Integral Setup <==

  DFHelper Memory: AOs need 0.031 GiB; user supplied 5.399 GiB. Using in-core AOs.

  ==> MemDFJK: Density-Fitted J/K Matrices <==

    J tasked:                   Yes
    K tasked:                    No
    wK tasked:                   No
    OpenMP threads:               4
    Memory [MiB]:              5528
    Algorithm:                 Core
    Schwarz Cutoff:           1E-12
    Mask sparsity (%):       1.2188
    Fitting Condition:        1E-10

   => Auxiliary Basis Set <=

  Basis Set: (DEF2-SV(P) AUX)
    Blend: DEF2-SV_P_-JKFIT
    Number of shells: 158
    Number of basis function: 572
    Number of Cartesian functions: 749
    Spherical Harmonics?: true
    Max angular momentum: 6

  Cached 100.0% of DFT collocation blocks in 0.189 [GiB].

  Minimum eigenvalue in the overlap matrix is 1.8506777226E-02.
  Using Symmetric Orthogonalization.

  SCF Guess: Orbitals guess was supplied from a previous computation.

  ==> Iterations <==

                           Total Energy        Delta E     RMS |[F,P]|

   @DF-RKS iter   0: -1393.75854209567206   -1.39376e+03   8.20198e-04 
   @DF-RKS iter   1: -1393.76547776333291   -6.93567e-03   8.34712e-05 DIIS
   @DF-RKS iter   2: -1393.76488222955504    5.95534e-04   5.31175e-04 DIIS
   @DF-RKS iter   3: -1393.76545729120699   -5.75062e-04   1.32659e-04 DIIS
   @DF-RKS iter   4: -1393.76548788733135   -3.05961e-05   6.55453e-05 DIIS
   @DF-RKS iter   5: -1393.76549699215957   -9.10483e-06   8.68843e-06 DIIS
   @DF-RKS iter   6: -1393.76549716283671   -1.70677e-07   6.62834e-07 DIIS
   @DF-RKS iter   7: -1393.76549716347927   -6.42558e-10   3.32376e-07 DIIS
   @DF-RKS iter   8: -1393.76549716362479   -1.45519e-10   2.35730e-07 DIIS
   @DF-RKS iter   9: -1393.76549716376849   -1.43700e-10   2.52946e-08 DIIS
   @DF-RKS iter  10: -1393.76549716376780    6.82121e-13   2.37751e-08 DIIS
   @DF-RKS iter  11: -1393.76549716377031   -2.50111e-12   1.16768e-09 DIIS
  Energy and wave function converged.


  ==> Post-Iterations <==

    Orbital Energies [Eh]
    ---------------------

    Doubly Occupied:                                                      

       1A   -214.718281     2A    -24.520019     3A    -24.306543  
       4A    -24.306543     5A    -20.897870     6A    -20.897448  
       7A    -20.893527     8A    -18.849475     9A    -18.849471  
      10A     -2.920960    11A     -1.914606    12A     -1.914274  
      13A     -1.909335    14A     -1.074531    15A     -1.069916  
      16A     -0.888946    17A     -0.878822    18A     -0.468177  
      19A     -0.462056    20A     -0.446804    21A     -0.446765  
      22A     -0.445828    23A     -0.410409    24A     -0.398527  
      25A     -0.385987    26A     -0.373046    27A     -0.357509  
      28A     -0.355592    29A     -0.317888  

    Virtual:                                                              

      30A     -0.215836    31A     -0.201866    32A     -0.174256  
      33A     -0.141454    34A     -0.117139    35A     -0.009683  
      36A      0.146203    37A      0.192909    38A      0.193341  
      39A      0.196873    40A      0.540406    41A      0.545757  
      42A      0.571497    43A      0.586026    44A      0.598129  
      45A      0.870231    46A      0.882132    47A      0.916173  
      48A      0.943252    49A      0.949024    50A      0.973628  
      51A      1.073204    52A      1.096800    53A      1.139613  
      54A      1.151669    55A      1.172256    56A      1.184840  
      57A      1.299254    58A      1.370421    59A      1.609408  
      60A      1.622412    61A      2.431357    62A      2.436112  
      63A      2.454871    64A      2.470217    65A      2.480066  
      66A      2.511044    67A      2.530032    68A      2.562180  
      69A      2.567167    70A      2.671543    71A      2.906245  
      72A      2.913026    73A      2.920876    74A      2.921979  
      75A      2.929725    76A      2.966492    77A      2.976140  
      78A      3.005698    79A      3.128241    80A      3.129206  

    Final Occupation by Irrep:
              A 
    DOCC [    29 ]

  @DF-RKS Final Energy: -1393.76549716377031

   => Energetics <=

    Nuclear Repulsion Energy =            349.1737738025482827
    One-Electron Energy =               -2613.7473451439145720
    Two-Electron Energy =                 956.6881135090443422
    DFT Exchange-Correlation Energy =     -85.8800393314481596
    Empirical Dispersion Energy =           0.0000000000000000
    VV10 Nonlocal Energy =                  0.0000000000000000
    Total Energy =                      -1393.7654971637703056

Computation Completed


Properties will be evaluated at   0.000000,   0.000000,   0.000000 [a0]

Properties computed using the SCF density matrix

  Nuclear Dipole Moment: [e a0]
     X:    -0.0219      Y:     1.4581      Z:    -0.3209

  Electronic Dipole Moment: [e a0]
     X:     0.0233      Y:    -1.5512      Z:     0.3414

  Dipole Moment: [e a0]
     X:     0.0014      Y:    -0.0931      Z:     0.0205     Total:     0.0954

  Dipole Moment: [D]
     X:     0.0036      Y:    -0.2368      Z:     0.0521     Total:     0.2425


*** tstop() called on thinkpad at Sat Jul 10 15:09:56 2021
Module time:
	user time   =       7.55 seconds =       0.13 minutes
	system time =       0.07 seconds =       0.00 minutes
	total time  =          3 seconds =       0.05 minutes
Total time:
	user time   =      51.35 seconds =       0.86 minutes
	system time =       0.56 seconds =       0.01 minutes
	total time  =         23 seconds =       0.38 minutes

*** tstart() called on thinkpad
*** at Sat Jul 10 15:09:56 2021


         ------------------------------------------------------------
                                   SCF GRAD                          
                          Rob Parrish, Justin Turney,                
                       Andy Simmonett, and Alex Sokolov              
         ------------------------------------------------------------

  ==> Geometry <==

    Molecular point group: c1
    Full point group: C1

    Geometry (in Angstrom), charge = 0, multiplicity = 1:

       Center              X                  Y                   Z               Mass       
    ------------   -----------------  -----------------  -----------------  -----------------
         CR          -0.000934822174     0.062231832083    -0.013697220065    51.940506230000
         O            1.020710543146     0.814886688790    -0.926768358460    15.994914619570
         O           -1.049469247414     1.099022673145     0.505521306192    15.994914619570
         F           -0.796371499834    -1.149219073074    -0.923064808821    18.998403162730
         F            0.823139441958    -0.632255370114     1.315163613919    18.998403162730

  Nuclear repulsion =  349.173773802548283

  ==> Basis Set <==

  Basis Set: DEF2-SV(P)
    Blend: DEF2-SV(P)
    Number of shells: 34
    Number of basis function: 80
    Number of Cartesian functions: 86
    Spherical Harmonics?: true
    Max angular momentum: 2

  ==> DFJKGrad: Density-Fitted SCF Gradients <==

    Gradient:                    1
    J tasked:                  Yes
    K tasked:                   No
    wK tasked:                  No
    OpenMP threads:              4
    Integrals threads:           4
    Memory [MiB]:             5722
    Schwarz Cutoff:          0E+00
    Fitting Condition:       1E-10

   => Auxiliary Basis Set <=

  Basis Set: (DEF2-SV(P) AUX)
    Blend: DEF2-SV_P_-JKFIT
    Number of shells: 158
    Number of basis function: 572
    Number of Cartesian functions: 749
    Spherical Harmonics?: true
    Max angular momentum: 6

  ==> DFT Potential <==

   => Composite Functional: MY PBE <= 

    Perdew, Burke & Ernzerhof
    J. P. Perdew, K. Burke, and M. Ernzerhof, Phys. Rev. Lett. 77, 3865 (1996)
    J. P. Perdew, K. Burke, and M. Ernzerhof, Phys. Rev. Lett. 78, 1396 (1997)

    Deriv               =              1
    GGA                 =           TRUE
    Meta                =          FALSE

    Exchange Hybrid     =          FALSE
    MP2 Hybrid          =          FALSE

   => Exchange Functionals <=

    1.0000     XC_gga_x_pbe

   => Correlation Functionals <=

    1.0000     XC_gga_c_pbe

   => Molecular Quadrature <=

    Radial Scheme          =       TREUTLER
    Pruning Scheme         =           FLAT
    Nuclear Scheme         =       TREUTLER

    BS radius alpha        =              1
    Pruning alpha          =              1
    Radial Points          =             75
    Spherical Points       =            302
    Total Points           =         113250
    Total Blocks           =            921
    Max Points             =            256
    Max Functions          =             77


  -Total Gradient:
     Atom            X                  Y                   Z
    ------   -----------------  -----------------  -----------------
       1       -0.000005405106     0.000371764480    -0.000081858356
       2       -0.001437533615    -0.000558221773     0.001169060525
       3        0.001460215082    -0.000955984739    -0.000835771058
       4        0.000698563400     0.000747041844     0.000861561093
       5       -0.000714347893     0.000296050664    -0.001091124811


*** tstop() called on thinkpad at Sat Jul 10 15:09:59 2021
Module time:
	user time   =       5.42 seconds =       0.09 minutes
	system time =       0.02 seconds =       0.00 minutes
	total time  =          3 seconds =       0.05 minutes
Total time:
	user time   =      56.77 seconds =       0.95 minutes
	system time =       0.58 seconds =       0.01 minutes
	total time  =         26 seconds =       0.43 minutes

			-----------------------------------------
			 OPTKING 2.0: for geometry optimizations 
			  - R.A. King,  Bethel University        
			-----------------------------------------

	Previous internal coordinate definitions found.
	---Fragment 1 Geometry and Gradient---
	 CR         -0.0017665579        0.1176011189       -0.0258839946
	 O           1.9288633799        1.5399126651       -1.7513383792
	 O          -1.9832094547        2.0768518579        0.9552968193
	 F          -1.5049240288       -2.1717093063       -1.7443396847
	 F           1.5555081084       -1.1947894909        2.4852990405
	            -0.0000054051        0.0003717645       -0.0000818584
	            -0.0014375336       -0.0005582218        0.0011690605
	             0.0014602151       -0.0009559847       -0.0008357711
	             0.0006985634        0.0007470418        0.0008615611
	            -0.0007143479        0.0002960507       -0.0010911248

	---Fragment 1 Intrafragment Coordinates---
	 - Coordinate -           - BOHR/RAD -       - ANG/DEG -
	 R(1,2)           =         2.954233	       1.563313
	 R(1,3)           =         2.954233	       1.563313
	 R(1,4)           =         3.233190	       1.710930
	 R(1,5)           =         3.233189	       1.710930
	 B(2,1,3)         =         1.889152	     108.240428
	 B(2,1,4)         =         1.911652	     109.529581
	 B(2,1,5)         =         1.911652	     109.529598
	 B(3,1,4)         =         1.911651	     109.529528
	 B(3,1,5)         =         1.911651	     109.529530
	 B(4,1,5)         =         1.927651	     110.446283

	Current energy   :     -1393.7654971638

	Energy change for the previous step:
		Projected    :        -0.0006613285
		Actual       :        -0.0003582434

	Performing BFGS update.
	Previous computed or guess Hessian on step 1.
	Steps to be used in Hessian update: 3 2
	Taking RFO optimization step.
	Going to follow RFO solution 1.
	Using RFO vector 1.
	Norm of target step-size    0.00778
	Projected energy change by RFO approximation:        -0.0000256180

	Back-transformation to cartesian coordinates...
	Successfully converged to displaced geometry.

	--- Internal Coordinate Step in ANG or DEG, aJ/ANG or AJ/DEG ---
	 ---------------------------------------------------------------------------
	   Coordinate                Previous        Force       Change         New 
	   ----------                --------       ------       ------       ------
	    1 R(1,2)          =      1.563313     0.015481     0.001029     1.564342
	    2 R(1,3)          =      1.563313     0.015481     0.001029     1.564342
	    3 R(1,4)          =      1.710930     0.010902     0.002229     1.713159
	    4 R(1,5)          =      1.710930     0.010902     0.002229     1.713159
	    5 B(2,1,3)        =    108.240428     0.000071     0.160798   108.401225
	    6 B(2,1,4)        =    109.529581    -0.000026    -0.068230   109.461351
	    7 B(2,1,5)        =    109.529598    -0.000026    -0.068246   109.461352
	    8 B(3,1,4)        =    109.529528    -0.000026    -0.068190   109.461338
	    9 B(3,1,5)        =    109.529530    -0.000026    -0.068196   109.461335
	   10 B(4,1,5)        =    110.446283     0.000034     0.112890   110.559173
	 ---------------------------------------------------------------------------
	Successfully symmetrized geometry.

  ==> Convergence Check <==

  Measures of convergence in internal coordinates in au.
  Criteria marked as inactive (o), active & met (*), and active & unmet ( ).
  ---------------------------------------------------------------------------------------------
   Step     Total Energy     Delta E     MAX Force     RMS Force      MAX Disp      RMS Disp   
  ---------------------------------------------------------------------------------------------
    Convergence Criteria             o    2.00e-06 *    1.00e-06 *    6.00e-06 *    4.00e-06 *
  ---------------------------------------------------------------------------------------------
      4   -1393.76549716   -3.58e-04 o    1.88e-03      1.10e-03      4.21e-03      2.46e-03    ~
  ---------------------------------------------------------------------------------------------

	Writing optimization data to binary file.
	Structure for next step:
	Cartesian Geometry (in Angstrom)
	   CR    -0.0009413469   0.0626463399  -0.0137883305
	    O     1.0224530014   0.8139143564  -0.9278044439
[...]
  Rotational constants: A =   4438.63946  B =   3978.07018  C =   3667.04647 [MHz]
  Nuclear repulsion =  348.776635962449291

  Charge       = 0
  Multiplicity = 1
  Electrons    = 58
  Nalpha       = 29
  Nbeta        = 29

  ==> Algorithm <==

  SCF Algorithm Type is DF.
  DIIS enabled.
  MOM disabled.
  Fractional occupation disabled.
  Guess Type is READ.
  Energy threshold   = 1.00e-08
  Density threshold  = 1.00e-08
  Integral threshold = 0.00e+00

  ==> Primary Basis <==

  Basis Set: DEF2-SV(P)
    Blend: DEF2-SV(P)
    Number of shells: 34
    Number of basis function: 80
    Number of Cartesian functions: 86
    Spherical Harmonics?: true
    Max angular momentum: 2

  ==> DFT Potential <==

   => Composite Functional: MY PBE <= 

    Perdew, Burke & Ernzerhof
    J. P. Perdew, K. Burke, and M. Ernzerhof, Phys. Rev. Lett. 77, 3865 (1996)
    J. P. Perdew, K. Burke, and M. Ernzerhof, Phys. Rev. Lett. 78, 1396 (1997)

    Deriv               =              1
    GGA                 =           TRUE
    Meta                =          FALSE

    Exchange Hybrid     =          FALSE
    MP2 Hybrid          =          FALSE

   => Exchange Functionals <=

    1.0000     XC_gga_x_pbe

   => Correlation Functionals <=

    1.0000     XC_gga_c_pbe

   => Molecular Quadrature <=

    Radial Scheme          =       TREUTLER
    Pruning Scheme         =           FLAT
    Nuclear Scheme         =       TREUTLER

    BS radius alpha        =              1
    Pruning alpha          =              1
    Radial Points          =             75
    Spherical Points       =            302
    Total Points           =         113250
    Total Blocks           =            919
    Max Points             =            256
    Max Functions          =             77

   => Loading Basis Set <=

    Name: (DEF2-SV(P) AUX)
    Role: JKFIT
    Keyword: DF_BASIS_SCF
    atoms 1   entry CR         line  1731 file /usr/share/psi4/basis/def2-sv_p_-jkfit.gbs 
    atoms 2-3 entry O          line   323 file /usr/share/psi4/basis/def2-sv_p_-jkfit.gbs 
    atoms 4-5 entry F          line   383 file /usr/share/psi4/basis/def2-sv_p_-jkfit.gbs 

   => Loading Basis Set <=

    Name: DEF2-SV(P)
    Role: ORBITAL
    Keyword: BASIS
    atoms 1   entry CR         line   606 file /usr/share/psi4/basis/def2-sv_p_.gbs 
    atoms 2-3 entry O          line   128 file /usr/share/psi4/basis/def2-sv_p_.gbs 
    atoms 4-5 entry F          line   148 file /usr/share/psi4/basis/def2-sv_p_.gbs 

  Reading orbitals from file 180, no projection.

  ==> Pre-Iterations <==

   -------------------------------------------------------
    Irrep   Nso     Nmo     Nalpha   Nbeta   Ndocc  Nsocc
   -------------------------------------------------------
     A         80      80       0       0       0       0
   -------------------------------------------------------
    Total      80      80      29      29      29       0
   -------------------------------------------------------

  ==> Integral Setup <==

  DFHelper Memory: AOs need 0.031 GiB; user supplied 5.399 GiB. Using in-core AOs.

  ==> MemDFJK: Density-Fitted J/K Matrices <==

    J tasked:                   Yes
    K tasked:                    No
    wK tasked:                   No
    OpenMP threads:               4
    Memory [MiB]:              5528
    Algorithm:                 Core
    Schwarz Cutoff:           1E-12
    Mask sparsity (%):       1.2500
    Fitting Condition:        1E-10

   => Auxiliary Basis Set <=

  Basis Set: (DEF2-SV(P) AUX)
    Blend: DEF2-SV_P_-JKFIT
    Number of shells: 158
    Number of basis function: 572
    Number of Cartesian functions: 749
    Spherical Harmonics?: true
    Max angular momentum: 6

  Cached 100.0% of DFT collocation blocks in 0.189 [GiB].

  Minimum eigenvalue in the overlap matrix is 1.8548973006E-02.
  Using Symmetric Orthogonalization.

  SCF Guess: Orbitals guess was supplied from a previous computation.

  ==> Iterations <==

                           Total Energy        Delta E     RMS |[F,P]|

   @DF-RKS iter   0: -1393.76550928757706   -1.39377e+03   9.10215e-07 
   @DF-RKS iter   1: -1393.76551328934261   -4.00177e-06   3.47657e-07 DIIS
   @DF-RKS iter   2: -1393.76551327178822    1.75544e-08   2.90846e-06 DIIS
   @DF-RKS iter   3: -1393.76551328913342   -1.73452e-08   4.61778e-07 DIIS
   @DF-RKS iter   4: -1393.76551328963205   -4.98630e-10   5.27196e-08 DIIS
   @DF-RKS iter   5: -1393.76551328963933   -7.27596e-12   7.94337e-09 DIIS
  Energy and wave function converged.


  ==> Post-Iterations <==

    Orbital Energies [Eh]
    ---------------------

    Doubly Occupied:                                                      

       1A   -214.719110     2A    -24.520639     3A    -24.306476  
       4A    -24.306474     5A    -20.898531     6A    -20.898082  
       7A    -20.894166     8A    -18.849808     9A    -18.849805  
      10A     -2.921147    11A     -1.914604    12A     -1.914354  
      13A     -1.909506    14A     -1.074245    15A     -1.069617  
      16A     -0.889010    17A     -0.878845    18A     -0.467667  
      19A     -0.461863    20A     -0.446387    21A     -0.446153  
      22A     -0.445552    23A     -0.410306    24A     -0.398427  
      25A     -0.385903    26A     -0.373090    27A     -0.357404  
      28A     -0.355453    29A     -0.318082  

    Virtual:                                                              

      30A     -0.216423    31A     -0.202374    32A     -0.175304  
      33A     -0.141937    34A     -0.118245    35A     -0.009799  
      36A      0.145712    37A      0.192829    38A      0.193477  
      39A      0.196171    40A      0.540363    41A      0.546240  
      42A      0.572055    43A      0.585824    44A      0.596946  
      45A      0.870610    46A      0.881983    47A      0.915885  
      48A      0.943314    49A      0.948964    50A      0.972979  
      51A      1.073753    52A      1.096731    53A      1.138929  
      54A      1.149736    55A      1.172398    56A      1.184962  
      57A      1.300198    58A      1.370203    59A      1.611124  
      60A      1.621106    61A      2.431291    62A      2.436196  
      63A      2.454623    64A      2.470377    65A      2.480405  
      66A      2.510798    67A      2.528762    68A      2.562307  
      69A      2.565967    70A      2.671513    71A      2.906596  
      72A      2.913249    73A      2.921022    74A      2.922324  
      75A      2.930092    76A      2.967093    77A      2.976289  
      78A      3.004838    79A      3.126750    80A      3.128492  

    Final Occupation by Irrep:
              A 
    DOCC [    29 ]

  @DF-RKS Final Energy: -1393.76551328963933

   => Energetics <=

    Nuclear Repulsion Energy =            348.7766359624492907
    One-Electron Energy =               -2612.9525728529742992
    Two-Electron Energy =                 956.2864868459352010
    DFT Exchange-Correlation Energy =     -85.8760632450494796
    Empirical Dispersion Energy =           0.0000000000000000
    VV10 Nonlocal Energy =                  0.0000000000000000
    Total Energy =                      -1393.7655132896393297

Computation Completed


Properties will be evaluated at   0.000000,   0.000000,   0.000000 [a0]

Properties computed using the SCF density matrix

  Nuclear Dipole Moment: [e a0]
     X:    -0.0219      Y:     1.4564      Z:    -0.3206

  Electronic Dipole Moment: [e a0]
     X:     0.0233      Y:    -1.5502      Z:     0.3412

  Dipole Moment: [e a0]
     X:     0.0014      Y:    -0.0938      Z:     0.0206     Total:     0.0960

  Dipole Moment: [D]
     X:     0.0036      Y:    -0.2383      Z:     0.0524     Total:     0.2440


*** tstop() called on thinkpad at Sat Jul 10 15:10:32 2021
Module time:
	user time   =       4.79 seconds =       0.08 minutes
	system time =       0.06 seconds =       0.00 minutes
	total time  =          3 seconds =       0.05 minutes
Total time:
	user time   =     125.03 seconds =       2.08 minutes
	system time =       1.11 seconds =       0.02 minutes
	total time  =         59 seconds =       0.98 minutes

*** tstart() called on thinkpad
*** at Sat Jul 10 15:10:32 2021


         ------------------------------------------------------------
                                   SCF GRAD                          
                          Rob Parrish, Justin Turney,                
                       Andy Simmonett, and Alex Sokolov              
         ------------------------------------------------------------

  ==> Geometry <==

    Molecular point group: c1
    Full point group: C1

    Geometry (in Angstrom), charge = 0, multiplicity = 1:

       Center              X                  Y                   Z               Mass       
    ------------   -----------------  -----------------  -----------------  -----------------
         CR          -0.000927169374     0.061703251878    -0.013580738439    51.940506230000
         O            1.022903528693     0.813181008045    -0.927961007424    15.994914619570
         O           -1.051619888380     1.097913825149     0.507333571481    15.994914619570
         F           -0.798867968874    -1.148099620350    -0.926895895710    18.998403162730
         F            0.825579338437    -0.629560140640     1.318154586790    18.998403162730

  Nuclear repulsion =  348.776635962449291

  ==> Basis Set <==

  Basis Set: DEF2-SV(P)
    Blend: DEF2-SV(P)
    Number of shells: 34
    Number of basis function: 80
    Number of Cartesian functions: 86
    Spherical Harmonics?: true
    Max angular momentum: 2

  ==> DFJKGrad: Density-Fitted SCF Gradients <==

    Gradient:                    1
    J tasked:                  Yes
    K tasked:                   No
    wK tasked:                  No
    OpenMP threads:              4
    Integrals threads:           4
    Memory [MiB]:             5722
    Schwarz Cutoff:          0E+00
    Fitting Condition:       1E-10

   => Auxiliary Basis Set <=

  Basis Set: (DEF2-SV(P) AUX)
    Blend: DEF2-SV_P_-JKFIT
    Number of shells: 158
    Number of basis function: 572
    Number of Cartesian functions: 749
    Spherical Harmonics?: true
    Max angular momentum: 6

  ==> DFT Potential <==

   => Composite Functional: MY PBE <= 

    Perdew, Burke & Ernzerhof
    J. P. Perdew, K. Burke, and M. Ernzerhof, Phys. Rev. Lett. 77, 3865 (1996)
    J. P. Perdew, K. Burke, and M. Ernzerhof, Phys. Rev. Lett. 78, 1396 (1997)

    Deriv               =              1
    GGA                 =           TRUE
    Meta                =          FALSE

    Exchange Hybrid     =          FALSE
    MP2 Hybrid          =          FALSE

   => Exchange Functionals <=

    1.0000     XC_gga_x_pbe

   => Correlation Functionals <=

    1.0000     XC_gga_c_pbe

   => Molecular Quadrature <=

    Radial Scheme          =       TREUTLER
    Pruning Scheme         =           FLAT
    Nuclear Scheme         =       TREUTLER

    BS radius alpha        =              1
    Pruning alpha          =              1
    Radial Points          =             75
    Spherical Points       =            302
    Total Points           =         113250
    Total Blocks           =            919
    Max Points             =            256
    Max Functions          =             77


  -Total Gradient:
     Atom            X                  Y                   Z
    ------   -----------------  -----------------  -----------------
       1        0.000000197527    -0.000019822632     0.000004448298
       2        0.000000229522    -0.000019825057     0.000004413359
       3        0.000000520346    -0.000020034436     0.000004251709
       4        0.000000389230    -0.000019496101     0.000004477687
       5        0.000000147015    -0.000019563937     0.000004141904


*** tstop() called on thinkpad at Sat Jul 10 15:10:33 2021
Module time:
	user time   =       3.77 seconds =       0.06 minutes
	system time =       0.01 seconds =       0.00 minutes
	total time  =          1 seconds =       0.02 minutes
Total time:
	user time   =     128.80 seconds =       2.15 minutes
	system time =       1.12 seconds =       0.02 minutes
	total time  =         60 seconds =       1.00 minutes

			-----------------------------------------
			 OPTKING 2.0: for geometry optimizations 
			  - R.A. King,  Bethel University        
			-----------------------------------------

	Previous internal coordinate definitions found.
	---Fragment 1 Geometry and Gradient---
	 CR         -0.0017520962        0.1166022471       -0.0256638762
	 O           1.9330075220        1.5366893956       -1.7535921591
	 O          -1.9872735771        2.0747564389        0.9587215043
	 F          -1.5096416716       -2.1695938472       -1.7515793897
	 F           1.5601188445       -1.1896962453        2.4909511600
	             0.0000001975       -0.0000198226        0.0000044483
	             0.0000002295       -0.0000198251        0.0000044134
	             0.0000005203       -0.0000200344        0.0000042517
	             0.0000003892       -0.0000194961        0.0000044777
	             0.0000001470       -0.0000195639        0.0000041419

	---Fragment 1 Intrafragment Coordinates---
	 - Coordinate -           - BOHR/RAD -       - ANG/DEG -
	 R(1,2)           =         2.957309	       1.564941
	 R(1,3)           =         2.957309	       1.564941
	 R(1,4)           =         3.237160	       1.713032
	 R(1,5)           =         3.237160	       1.713032
	 B(2,1,3)         =         1.892074	     108.407868
	 B(2,1,4)         =         1.909597	     109.411867
	 B(2,1,5)         =         1.909597	     109.411866
	 B(3,1,4)         =         1.909597	     109.411868
	 B(3,1,5)         =         1.909597	     109.411867
	 B(4,1,5)         =         1.932896	     110.746784

	Current energy   :     -1393.7655132896

	Energy change for the previous step:
		Projected    :        -0.0000000013
		Actual       :        -0.0000000030

	Performing BFGS update.
	Previous computed or guess Hessian on step 1.
	Denominators (dg)(dq) or (dq)(dq) are very small.
	 Skipping Hessian update for step 11.
	Denominators (dg)(dq) or (dq)(dq) are very small.
	 Skipping Hessian update for step 10.
	Denominators (dg)(dq) or (dq)(dq) are very small.
	 Skipping Hessian update for step 9.
	Steps to be used in Hessian update: 8 7
	Taking RFO optimization step.
	Going to follow RFO solution 1.
	Using RFO vector 1.
	Norm of target step-size    0.00000
	Projected energy change by RFO approximation:        -0.0000000000

	Back-transformation to cartesian coordinates...
	Successfully converged to displaced geometry.

	--- Internal Coordinate Step in ANG or DEG, aJ/ANG or AJ/DEG ---
	 ---------------------------------------------------------------------------
	   Coordinate                Previous        Force       Change         New 
	   ----------                --------       ------       ------       ------
	    1 R(1,2)          =      1.564941     0.000001     0.000000     1.564941
	    2 R(1,3)          =      1.564941     0.000003     0.000000     1.564941
	    3 R(1,4)          =      1.713032     0.000002     0.000000     1.713032
	    4 R(1,5)          =      1.713032     0.000003     0.000000     1.713032
	    5 B(2,1,3)        =    108.407868    -0.000000    -0.000011   108.407857
	    6 B(2,1,4)        =    109.411867     0.000000     0.000009   109.411876
	    7 B(2,1,5)        =    109.411866     0.000000     0.000010   109.411876
	    8 B(3,1,4)        =    109.411868     0.000000     0.000032   109.411900
	    9 B(3,1,5)        =    109.411867     0.000000     0.000033   109.411900
	   10 B(4,1,5)        =    110.746784    -0.000000    -0.000071   110.746712
	 ---------------------------------------------------------------------------
	Successfully symmetrized geometry.

  ==> Convergence Check <==

  Measures of convergence in internal coordinates in au.
  Criteria marked as inactive (o), active & met (*), and active & unmet ( ).
  ---------------------------------------------------------------------------------------------
   Step     Total Energy     Delta E     MAX Force     RMS Force      MAX Disp      RMS Disp   
  ---------------------------------------------------------------------------------------------
    Convergence Criteria             o    2.00e-06 *    1.00e-06 *    6.00e-06 *    4.00e-06 *
  ---------------------------------------------------------------------------------------------
     12   -1393.76551329   -2.97e-09 o    3.71e-07 *    1.95e-07 *    1.25e-06 *    6.32e-07 *  ~
  ---------------------------------------------------------------------------------------------


  **** Optimization is complete! (in 12 steps) ****

  ==> Optimization Summary <==

  Measures of convergence in internal coordinates in au.
  --------------------------------------------------------------------------------------------------------------- ~
   Step         Total Energy             Delta E       MAX Force       RMS Force        MAX Disp        RMS Disp  ~
  --------------------------------------------------------------------------------------------------------------- ~
      1   -1393.762019151943  -1393.762019151943      0.02951446      0.01736057      0.06352953      0.02436427  ~
      2   -1393.763929786413     -0.001910634470      0.02093193      0.01179864      0.03273327      0.01596352  ~
      3   -1393.765138920384     -0.001209133970      0.00878348      0.00555046      0.02168393      0.01158732  ~
      4   -1393.765497163770     -0.000358243386      0.00187908      0.00109930      0.00421198      0.00245902  ~
      5   -1393.765511289541     -0.000014125771      0.00063805      0.00031687      0.00172310      0.00066330  ~
      6   -1393.765512468379     -0.000001178838      0.00039993      0.00020305      0.00178123      0.00065308  ~
      7   -1393.765513072671     -0.000000604292      0.00021425      0.00010560      0.00018263      0.00010855  ~
      8   -1393.765513171298     -0.000000098627      0.00014493      0.00007111      0.00008253      0.00005621  ~
      9   -1393.765513223333     -0.000000052034      0.00010004      0.00004910      0.00008763      0.00004853  ~
     10   -1393.765513254083     -0.000000030750      0.00006558      0.00003215      0.00020624      0.00009193  ~
     11   -1393.765513286665     -0.000000032582      0.00001028      0.00000498      0.00004553      0.00001793  ~
     12   -1393.765513289639     -0.000000002975      0.00000037      0.00000019      0.00000125      0.00000063  ~
  --------------------------------------------------------------------------------------------------------------- ~

	Writing optimization data to binary file.
	Final energy is  -1393.7655132896393
	Final (previous) structure:
	Cartesian Geometry (in Angstrom)
	   CR    -0.0009271694   0.0617032516  -0.0135807384
	    O     1.0229035247   0.8131810048  -0.9279610038
	    O    -1.0516198842   1.0979138208   0.5073335695
	    F    -0.7988679657  -1.1480996158  -0.9268958921
	    F     0.8255793352  -0.6295601382   1.3181545816
	Saving final (previous) structure.
			--------------------------
			 OPTKING Finished Execution 
			--------------------------

    Final optimized geometry and variables:
    Molecular point group: c1
    Full point group: C1

    Geometry (in Angstrom), charge = 0, multiplicity = 1:

    CR          -0.000927169374     0.061703251878    -0.013580738439
    O            1.022903528693     0.813181008045    -0.927961007424
    O           -1.051619888380     1.097913825149     0.507333571481
    F           -0.798867968874    -1.148099620350    -0.926895895710
    F            0.825579338437    -0.629560140640     1.318154586790

	Removing binary optimization data file.
	Cleaning optimization helper files.

    Psi4 stopped on: Saturday, 10 July 2021 03:10PM
    Psi4 wall time for execution: 0:01:00.93

*** Psi4 exiting successfully. Buy a developer a beer!
