
    -----------------------------------------------------------------------
          Psi4: An Open-Source Ab Initio Electronic Structure Package
                               Psi4 1.3.2 release

                         Git: Rev {} zzzzzzz 


    R. M. Parrish, L. A. Burns, D. G. A. Smith, A. C. Simmonett,
    A. E. DePrince III, E. G. Hohenstein, U. Bozkaya, A. Yu. Sokolov,
    R. Di Remigio, R. M. Richard, J. F. Gonthier, A. M. James,
    H. R. McAlexander, A. Kumar, M. Saitow, X. Wang, B. P. Pritchard,
    P. Verma, H. F. Schaefer III, K. Patkowski, R. A. King, E. F. Valeev,
    F. A. Evangelista, J. M. Turney, T. D. Crawford, and C. D. Sherrill,
    J. Chem. Theory Comput. 13(7) pp 3185--3197 (2017).
    (doi: 10.1021/acs.jctc.7b00174)


                         Additional Contributions by
    P. Kraus, H. Kruse, M. H. Lechner, M. C. Schieber, R. A. Shaw,
    A. Alenaizan, R. Galvelis, Z. L. Glick, S. Lehtola, and J. P. Misiewicz

    -----------------------------------------------------------------------


    Psi4 started on: Saturday, 10 July 2021 03:19PM

    Process ID: 1892539
    Host:       thinkpad
    PSIDATADIR: /usr/share/psi4
    Memory:     500.0 MiB
    Threads:    4
    
  ==> Input File <==

--------------------------------------------------------------------------
memory 8 gb

molecule {
symmetry c1
Cr        0.48028725377749    0.32716919378518    0.12128381663197
O         1.51332165941332    1.03448648135578   -0.78955553051410
O        -0.57831537187616    1.32157128739802    0.65757817076212
F        -0.29602430869141   -0.85637252313759   -0.76598418135575
F         1.28459076737678   -0.35182443940140    1.41848772447575
}

set basis def2-SVP
set geom_maxiter 250

# Use a (75,302) quadrature grid
set dft_radial_points 75
set dft_spherical_points 302

# Very tight geometry optimization
set g_convergence gau_verytight
# Increase allowed number of geometry optimization steps
set geom_maxiter 250

# Use the Hueckel type guess
set guess huckel

my_dft = {
    "name": "my r2scan",
    "x_functionals": {"mgga_x_r2scan": {}},
    "c_functionals": {"mgga_c_r2scan": {}}
}
optimize('scf', dft_functional=my_dft)
--------------------------------------------------------------------------

  Memory set to   7.451 GiB by Python driver.
gradient() will perform analytic gradient computation.

*** tstart() called on thinkpad
*** at Sat Jul 10 15:19:39 2021

   => Loading Basis Set <=

    Name: DEF2-SVP
    Role: ORBITAL
    Keyword: BASIS
    atoms 1   entry CR         line   614 file /usr/share/psi4/basis/def2-svp.gbs 
    atoms 2-3 entry O          line   130 file /usr/share/psi4/basis/def2-svp.gbs 
    atoms 4-5 entry F          line   150 file /usr/share/psi4/basis/def2-svp.gbs 


         ---------------------------------------------------------
                                   SCF
               by Justin Turney, Rob Parrish, Andy Simmonett
                          and Daniel G. A. Smith
                              RKS Reference
                        4 Threads,   7629 MiB Core
         ---------------------------------------------------------

  ==> Geometry <==

    Molecular point group: c1
    Full point group: C1

    Geometry (in Angstrom), charge = 0, multiplicity = 1:

       Center              X                  Y                   Z               Mass       
    ------------   -----------------  -----------------  -----------------  -----------------
         CR          -0.001007494106     0.066977222278    -0.014740872913    51.940506230000
         O            1.032026911530     0.774294509849    -0.925580220059    15.994914619570
         O           -1.059610119760     1.061379315891     0.521553481217    15.994914619570
         F           -0.777319056575    -1.116564494645    -0.902008870901    18.998403162730
         F            0.803296019493    -0.612016410908     1.282463034931    18.998403162730

  Running in c1 symmetry.

  Rotational constants: A =      0.15233  B =      0.13609  C =      0.12992 [cm^-1]
  Rotational constants: A =   4566.71939  B =   4079.72696  C =   3895.02954 [MHz]
  Nuclear repulsion =  355.181605515257786

  Charge       = 0
  Multiplicity = 1
  Electrons    = 58
  Nalpha       = 29
  Nbeta        = 29

  ==> Algorithm <==

  SCF Algorithm Type is DF.
  DIIS enabled.
  MOM disabled.
  Fractional occupation disabled.
  Guess Type is HUCKEL.
  Energy threshold   = 1.00e-08
  Density threshold  = 1.00e-08
  Integral threshold = 0.00e+00

  ==> Primary Basis <==

  Basis Set: DEF2-SVP
    Blend: DEF2-SVP
    Number of shells: 35
    Number of basis function: 87
    Number of Cartesian functions: 96
    Spherical Harmonics?: true
    Max angular momentum: 3

  ==> DFT Potential <==

   => Composite Functional: MY R2SCAN <= 

    Re-regularized SCAN exchange by Furness et al
    Re-regularized SCAN correlation by Furness et al
    J. W. Furness, A. D. Kaplan, J. Ning, J. P. Perdew, and J. Sun, J. Phys. Chem. Lett. 11, 8208 (2020)
    J. W. Furness, A. D. Kaplan, J. Ning, J. P. Perdew, and J. Sun, J. Phys. Chem. Lett. 11, 9248 (2020)

    Deriv               =              1
    GGA                 =           TRUE
    Meta                =           TRUE

    Exchange Hybrid     =          FALSE
    MP2 Hybrid          =          FALSE

   => Exchange Functionals <=

    1.0000   XC_mgga_x_r2scan

   => Correlation Functionals <=

    1.0000   XC_mgga_c_r2scan

   => Molecular Quadrature <=

    Radial Scheme          =       TREUTLER
    Pruning Scheme         =           FLAT
    Nuclear Scheme         =       TREUTLER

    BS radius alpha        =              1
    Pruning alpha          =              1
    Radial Points          =             75
    Spherical Points       =            302
    Total Points           =         113250
    Total Blocks           =            920
    Max Points             =            256
    Max Functions          =             84

   => Loading Basis Set <=

    Name: (DEF2-SVP AUX)
    Role: JKFIT
    Keyword: DF_BASIS_SCF
    atoms 1   entry CR         line  1731 file /usr/share/psi4/basis/def2-svp-jkfit.gbs 
    atoms 2-3 entry O          line   323 file /usr/share/psi4/basis/def2-svp-jkfit.gbs 
    atoms 4-5 entry F          line   383 file /usr/share/psi4/basis/def2-svp-jkfit.gbs 

  ==> Pre-Iterations <==

   -------------------------------------------------------
    Irrep   Nso     Nmo     Nalpha   Nbeta   Ndocc  Nsocc
   -------------------------------------------------------
     A         87      87       0       0       0       0
   -------------------------------------------------------
    Total      87      87      29      29      29       0
   -------------------------------------------------------

  ==> Integral Setup <==

  DFHelper Memory: AOs need 0.037 GiB; user supplied 5.062 GiB. Using in-core AOs.

  ==> MemDFJK: Density-Fitted J/K Matrices <==

    J tasked:                   Yes
    K tasked:                    No
    wK tasked:                   No
    OpenMP threads:               4
    Memory [MiB]:              5183
    Algorithm:                 Core
    Schwarz Cutoff:           1E-12
    Mask sparsity (%):       0.9248
    Fitting Condition:        1E-10

   => Auxiliary Basis Set <=

  Basis Set: (DEF2-SVP AUX)
    Blend: DEF2-SVP-JKFIT
    Number of shells: 158
    Number of basis function: 572
    Number of Cartesian functions: 749
    Spherical Harmonics?: true
    Max angular momentum: 6

  Cached 100.0% of DFT collocation blocks in 0.526 [GiB].

  Minimum eigenvalue in the overlap matrix is 1.8739376201E-02.
  Using Symmetric Orthogonalization.

  SCF Guess: Huckel guess via on-the-fly atomic UHF (doi:10.1021/acs.jctc.8b01089).

  ==> Iterations <==

                           Total Energy        Delta E     RMS |[F,P]|

   @DF-RKS iter   1: -1392.43329634595784   -1.39243e+03   2.72766e-02 DIIS
   @DF-RKS iter   2: -1374.06966512447752    1.83636e+01   5.33540e-02 DIIS
   @DF-RKS iter   3: -1391.49698255507747   -1.74273e+01   2.64757e-02 DIIS
   @DF-RKS iter   4: -1393.51482399935321   -2.01784e+00   1.41482e-02 DIIS
   @DF-RKS iter   5: -1392.24117478645007    1.27365e+00   2.67109e-02 DIIS
   @DF-RKS iter   6: -1393.83288827501178   -1.59171e+00   1.07391e-02 DIIS
   @DF-RKS iter   7: -1393.45516848176294    3.77720e-01   1.46869e-02 DIIS
   @DF-RKS iter   8: -1393.43851423624528    1.66542e-02   1.48499e-02 DIIS
   @DF-RKS iter   9: -1393.65577996914135   -2.17266e-01   1.27804e-02 DIIS
   @DF-RKS iter  10: -1393.68816584399065   -3.23859e-02   1.24904e-02 DIIS
   @DF-RKS iter  11: -1393.67863147735511    9.53437e-03   1.26044e-02 DIIS
   @DF-RKS iter  12: -1393.96700337447919   -2.88372e-01   7.90970e-03 DIIS
   @DF-RKS iter  13: -1394.07269784204686   -1.05694e-01   4.29734e-03 DIIS
   @DF-RKS iter  14: -1394.13120308218549   -5.85052e-02   7.37636e-04 DIIS
   @DF-RKS iter  15: -1394.13217810734227   -9.75025e-04   3.35132e-04 DIIS
   @DF-RKS iter  16: -1394.13242769510657   -2.49588e-04   1.51244e-04 DIIS
   @DF-RKS iter  17: -1394.13249035500485   -6.26599e-05   4.62686e-05 DIIS
   @DF-RKS iter  18: -1394.13249584905270   -5.49405e-06   2.02094e-06 DIIS
   @DF-RKS iter  19: -1394.13249585298445   -3.93175e-09   1.75183e-06 DIIS
   @DF-RKS iter  20: -1394.13249586073516   -7.75071e-09   9.48025e-08 DIIS
   @DF-RKS iter  21: -1394.13249586076222   -2.70575e-11   2.19540e-08 DIIS
   @DF-RKS iter  22: -1394.13249586075972    2.50111e-12   8.39732e-09 DIIS
  Energy and wave function converged.


  ==> Post-Iterations <==

    Orbital Energies [Eh]
    ---------------------

    Doubly Occupied:                                                      

       1A   -215.547226     2A    -24.841894     3A    -24.545217  
       4A    -24.545216     5A    -21.123008     6A    -21.122870  
       7A    -21.119058     8A    -19.055670     9A    -19.055665  
      10A     -3.039741    11A     -1.990998    12A     -1.989762  
      13A     -1.985709    14A     -1.148329    15A     -1.142782  
      16A     -0.941801    17A     -0.929500    18A     -0.500559  
      19A     -0.494177    20A     -0.477900    21A     -0.476381  
      22A     -0.475748    23A     -0.434812    24A     -0.427181  
      25A     -0.411427    26A     -0.389743    27A     -0.378311  
      28A     -0.375354    29A     -0.337333  

    Virtual:                                                              

      30A     -0.219986    31A     -0.202671    32A     -0.172210  
      33A     -0.131894    34A     -0.114060    35A      0.017406  
      36A      0.166909    37A      0.220090    38A      0.224216  
      39A      0.225295    40A      0.569011    41A      0.570656  
      42A      0.584341    43A      0.633391    44A      0.634348  
      45A      0.919240    46A      0.927300    47A      0.976115  
      48A      0.982302    49A      1.003524    50A      1.024499  
      51A      1.119575    52A      1.148415    53A      1.186421  
      54A      1.224955    55A      1.240562    56A      1.240652  
      57A      1.348660    58A      1.427748    59A      1.655522  
      60A      1.669319    61A      2.208057    62A      2.310149  
      63A      2.339515    64A      2.396158    65A      2.524881  
      66A      2.551482    67A      2.558543    68A      2.558875  
      69A      2.567971    70A      2.604565    71A      2.690351  
      72A      2.779660    73A      2.854222    74A      2.912154  
      75A      2.989282    76A      3.023287    77A      3.044328  
      78A      3.054577    79A      3.218827    80A      3.240856  
      81A      3.293279    82A      3.293982    83A      3.302833  
      84A      3.308668    85A      3.340917    86A      3.402604  
      87A      3.537289  

    Final Occupation by Irrep:
              A 
    DOCC [    29 ]

  @DF-RKS Final Energy: -1394.13249586075972

   => Energetics <=

    Nuclear Repulsion Energy =            355.1816055152577860
    One-Electron Energy =               -2625.2953709058074310
    Two-Electron Energy =                 962.2739261492640708
    DFT Exchange-Correlation Energy =     -86.2926566194740019
    Empirical Dispersion Energy =           0.0000000000000000
    VV10 Nonlocal Energy =                  0.0000000000000000
    Total Energy =                      -1394.1324958607597182

Computation Completed


Properties will be evaluated at   0.000000,   0.000000,   0.000000 [a0]

Properties computed using the SCF density matrix

  Nuclear Dipole Moment: [e a0]
     X:    -0.0209      Y:     1.3901      Z:    -0.3060

  Electronic Dipole Moment: [e a0]
     X:     0.0228      Y:    -1.5165      Z:     0.3338

  Dipole Moment: [e a0]
     X:     0.0019      Y:    -0.1264      Z:     0.0278     Total:     0.1294

  Dipole Moment: [D]
     X:     0.0048      Y:    -0.3213      Z:     0.0707     Total:     0.3290


*** tstop() called on thinkpad at Sat Jul 10 15:19:48 2021
Module time:
	user time   =      27.59 seconds =       0.46 minutes
	system time =       0.32 seconds =       0.01 minutes
	total time  =          9 seconds =       0.15 minutes
Total time:
	user time   =      27.59 seconds =       0.46 minutes
	system time =       0.32 seconds =       0.01 minutes
	total time  =          9 seconds =       0.15 minutes

*** tstart() called on thinkpad
*** at Sat Jul 10 15:19:48 2021


         ------------------------------------------------------------
                                   SCF GRAD                          
                          Rob Parrish, Justin Turney,                
                       Andy Simmonett, and Alex Sokolov              
         ------------------------------------------------------------

  ==> Geometry <==

    Molecular point group: c1
    Full point group: C1

    Geometry (in Angstrom), charge = 0, multiplicity = 1:

       Center              X                  Y                   Z               Mass       
    ------------   -----------------  -----------------  -----------------  -----------------
         CR          -0.001007494106     0.066977222278    -0.014740872913    51.940506230000
         O            1.032026911530     0.774294509849    -0.925580220059    15.994914619570
         O           -1.059610119760     1.061379315891     0.521553481217    15.994914619570
         F           -0.777319056575    -1.116564494645    -0.902008870901    18.998403162730
         F            0.803296019493    -0.612016410908     1.282463034931    18.998403162730

  Nuclear repulsion =  355.181605515257786

  ==> Basis Set <==

  Basis Set: DEF2-SVP
    Blend: DEF2-SVP
    Number of shells: 35
    Number of basis function: 87
    Number of Cartesian functions: 96
    Spherical Harmonics?: true
    Max angular momentum: 3

  ==> DFJKGrad: Density-Fitted SCF Gradients <==

    Gradient:                    1
    J tasked:                  Yes
    K tasked:                   No
    wK tasked:                  No
    OpenMP threads:              4
    Integrals threads:           4
    Memory [MiB]:             5722
    Schwarz Cutoff:          0E+00
    Fitting Condition:       1E-10

   => Auxiliary Basis Set <=

  Basis Set: (DEF2-SVP AUX)
    Blend: DEF2-SVP-JKFIT
    Number of shells: 158
    Number of basis function: 572
    Number of Cartesian functions: 749
    Spherical Harmonics?: true
    Max angular momentum: 6

  ==> DFT Potential <==

   => Composite Functional: MY R2SCAN <= 

    Re-regularized SCAN exchange by Furness et al
    Re-regularized SCAN correlation by Furness et al
    J. W. Furness, A. D. Kaplan, J. Ning, J. P. Perdew, and J. Sun, J. Phys. Chem. Lett. 11, 8208 (2020)
    J. W. Furness, A. D. Kaplan, J. Ning, J. P. Perdew, and J. Sun, J. Phys. Chem. Lett. 11, 9248 (2020)

    Deriv               =              1
    GGA                 =           TRUE
    Meta                =           TRUE

    Exchange Hybrid     =          FALSE
    MP2 Hybrid          =          FALSE

   => Exchange Functionals <=

    1.0000   XC_mgga_x_r2scan

   => Correlation Functionals <=

    1.0000   XC_mgga_c_r2scan

   => Molecular Quadrature <=

    Radial Scheme          =       TREUTLER
    Pruning Scheme         =           FLAT
    Nuclear Scheme         =       TREUTLER

    BS radius alpha        =              1
    Pruning alpha          =              1
    Radial Points          =             75
    Spherical Points       =            302
    Total Points           =         113250
    Total Blocks           =            920
    Max Points             =            256
    Max Functions          =             84


  -Total Gradient:
     Atom            X                  Y                   Z
    ------   -----------------  -----------------  -----------------
       1        0.000170085022    -0.011345473749     0.002497388528
       2        0.004349795484    -0.005249556493    -0.001934793490
       3       -0.004209557882    -0.004074250472     0.003986954611
       4        0.006215047334     0.010523136109     0.006895067782
       5       -0.006470127666     0.006473984677    -0.010636429808


*** tstop() called on thinkpad at Sat Jul 10 15:19:50 2021
Module time:
	user time   =       4.25 seconds =       0.07 minutes
	system time =       0.03 seconds =       0.00 minutes
	total time  =          2 seconds =       0.03 minutes
Total time:
	user time   =      31.84 seconds =       0.53 minutes
	system time =       0.35 seconds =       0.01 minutes
	total time  =         11 seconds =       0.18 minutes

			-----------------------------------------
			 OPTKING 2.0: for geometry optimizations 
			  - R.A. King,  Bethel University        
			-----------------------------------------

	Internal coordinates to be generated automatically.
	Detected frag 1 with atoms:  1 2 3 4 5
	---Fragment 1 Bond Connectivity---
	 1 : 2 3 4 5
	 2 : 1
	 3 : 1
	 4 : 1
	 5 : 1

	---Fragment 1 Geometry and Gradient---
	 CR         -0.0019038879        0.1265686067       -0.0278562127
	 O           1.9502482169        1.4632045641       -1.7490931231
	 O          -2.0023729261        2.0057162223        0.9855932393
	 F          -1.4689201290       -2.1100010963       -1.7045497287
	 F           1.5180094745       -1.1565434009        2.4235039020
	             0.0001700850       -0.0113454737        0.0024973885
	             0.0043497955       -0.0052495565       -0.0019347935
	            -0.0042095579       -0.0040742505        0.0039869546
	             0.0062150473        0.0105231361        0.0068950678
	            -0.0064701277        0.0064739847       -0.0106364298

	Previous optimization step data not found.  Starting new optimization.

	---Fragment 1 Intrafragment Coordinates---
	 - Coordinate -           - BOHR/RAD -       - ANG/DEG -
	 R(1,2)           =         2.925773	       1.548253
	 R(1,3)           =         2.925774	       1.548253
	 R(1,4)           =         3.156847	       1.670531
	 R(1,5)           =         3.156846	       1.670531
	 B(2,1,3)         =         1.946113	     111.504060
	 B(2,1,4)         =         1.897868	     108.739823
	 B(2,1,5)         =         1.897867	     108.739770
	 B(3,1,4)         =         1.897872	     108.740061
	 B(3,1,5)         =         1.897872	     108.740055
	 B(4,1,5)         =         1.926457	     110.377858

	Current energy   :     -1394.1324958608

	Generating empirical Hessian (Schlegel '84) for each fragment.
	Taking RFO optimization step.
	Going to follow RFO solution 1.
	Using RFO vector 1.
	Norm of target step-size    0.06720
	Projected energy change by RFO approximation:        -0.0013810636

	Back-transformation to cartesian coordinates...
	Successfully converged to displaced geometry.

	--- Internal Coordinate Step in ANG or DEG, aJ/ANG or AJ/DEG ---
	 ---------------------------------------------------------------------------
	   Coordinate                Previous        Force       Change         New 
	   ----------                --------       ------       ------       ------
	    1 R(1,2)          =      1.548253    -0.017017    -0.000398     1.547855
	    2 R(1,3)          =      1.548253    -0.017019    -0.000398     1.547855
	    3 R(1,4)          =      1.670531     0.118927     0.005681     1.676212
	    4 R(1,5)          =      1.670531     0.118928     0.005681     1.676212
	    5 B(2,1,3)        =    111.504060    -0.001105    -3.301063   108.202996
	    6 B(2,1,4)        =    108.739823     0.000292     0.867775   109.607598
	    7 B(2,1,5)        =    108.739770     0.000292     0.867828   109.607597
	    8 B(3,1,4)        =    108.740061     0.000292     0.867570   109.607631
	    9 B(3,1,5)        =    108.740055     0.000292     0.867585   109.607640
	   10 B(4,1,5)        =    110.377858    -0.000070    -0.201305   110.176553
	 ---------------------------------------------------------------------------
	Successfully symmetrized geometry.

  ==> Convergence Check <==

  Measures of convergence in internal coordinates in au.
  Criteria marked as inactive (o), active & met (*), and active & unmet ( ).
  --------------------------------------------------------------------------------------------- ~
   Step     Total Energy     Delta E     MAX Force     RMS Force      MAX Disp      RMS Disp    ~
  --------------------------------------------------------------------------------------------- ~
    Convergence Criteria             o    2.00e-06 *    1.00e-06 *    6.00e-06 *    4.00e-06 *  ~
  --------------------------------------------------------------------------------------------- ~
      1   -1394.13249586   -1.39e+03 o    1.45e-02      8.34e-03      5.76e-02      2.12e-02    ~
  ---------------------------------------------------------------------------------------------

	Writing optimization data to binary file.
	Structure for next step:
	Cartesian Geometry (in Angstrom)
	   CR    -0.0008265431   0.0550212220  -0.0121100650
	    O     1.0104690496   0.8006664816  -0.9160732202
	    O    -1.0387566279   1.0819276421   0.5017184573
	    F    -0.7787750183  -1.1345948007  -0.9005344349
	    F     0.8052754003  -0.6289504033   1.2886858153
			--------------------------
			 OPTKING Finished Execution 
			--------------------------

    Structure for next step:
    Molecular point group: c1
    Full point group: C1

    Geometry (in Angstrom), charge = 0, multiplicity = 1:

    CR          -0.000892783259     0.059407287363    -0.013075268086
    O            1.010402813369     0.805052549889    -0.917038426856
    O           -1.038822872160     1.086313711468     0.500753256155
    F           -0.778841261556    -1.130208739982    -0.901499641550
    F            0.805209163320    -0.624564340605     1.287720617247

gradient() will perform analytic gradient computation.

*** tstart() called on thinkpad
*** at Sat Jul 10 15:19:50 2021

   => Loading Basis Set <=

    Name: DEF2-SVP
    Role: ORBITAL
    Keyword: BASIS
    atoms 1   entry CR         line   614 file /usr/share/psi4/basis/def2-svp.gbs 
    atoms 2-3 entry O          line   130 file /usr/share/psi4/basis/def2-svp.gbs 
    atoms 4-5 entry F          line   150 file /usr/share/psi4/basis/def2-svp.gbs 


         ---------------------------------------------------------
                                   SCF
               by Justin Turney, Rob Parrish, Andy Simmonett
                          and Daniel G. A. Smith
                              RKS Reference
                        4 Threads,   7629 MiB Core
         ---------------------------------------------------------

  ==> Geometry <==

    Molecular point group: c1
    Full point group: C1

    Geometry (in Angstrom), charge = 0, multiplicity = 1:

       Center              X                  Y                   Z               Mass       
    ------------   -----------------  -----------------  -----------------  -----------------
         CR          -0.000892783259     0.059407287363    -0.013075268086    51.940506230000
         O            1.010402813369     0.805052549889    -0.917038426856    15.994914619570
         O           -1.038822872160     1.086313711468     0.500753256155    15.994914619570
         F           -0.778841261556    -1.130208739982    -0.901499641550    18.998403162730
         F            0.805209163320    -0.624564340605     1.287720617247    18.998403162730

  Running in c1 symmetry.

  Rotational constants: A =      0.15165  B =      0.13808  C =      0.12708 [cm^-1]
  Rotational constants: A =   4546.41233  B =   4139.61773  C =   3809.62794 [MHz]
  Nuclear repulsion =  354.582536591332996

  Charge       = 0
  Multiplicity = 1
  Electrons    = 58
  Nalpha       = 29
  Nbeta        = 29

  ==> Algorithm <==

  SCF Algorithm Type is DF.
  DIIS enabled.
  MOM disabled.
  Fractional occupation disabled.
  Guess Type is READ.
  Energy threshold   = 1.00e-08
  Density threshold  = 1.00e-08
  Integral threshold = 0.00e+00

  ==> Primary Basis <==

  Basis Set: DEF2-SVP
    Blend: DEF2-SVP
    Number of shells: 35
    Number of basis function: 87
    Number of Cartesian functions: 96
    Spherical Harmonics?: true
    Max angular momentum: 3

  ==> DFT Potential <==

   => Composite Functional: MY R2SCAN <= 

    Re-regularized SCAN exchange by Furness et al
    Re-regularized SCAN correlation by Furness et al
    J. W. Furness, A. D. Kaplan, J. Ning, J. P. Perdew, and J. Sun, J. Phys. Chem. Lett. 11, 8208 (2020)
    J. W. Furness, A. D. Kaplan, J. Ning, J. P. Perdew, and J. Sun, J. Phys. Chem. Lett. 11, 9248 (2020)

    Deriv               =              1
    GGA                 =           TRUE
    Meta                =           TRUE

    Exchange Hybrid     =          FALSE
    MP2 Hybrid          =          FALSE

   => Exchange Functionals <=

    1.0000   XC_mgga_x_r2scan

   => Correlation Functionals <=

    1.0000   XC_mgga_c_r2scan

   => Molecular Quadrature <=

    Radial Scheme          =       TREUTLER
    Pruning Scheme         =           FLAT
    Nuclear Scheme         =       TREUTLER

    BS radius alpha        =              1
    Pruning alpha          =              1
    Radial Points          =             75
    Spherical Points       =            302
    Total Points           =         113250
    Total Blocks           =            922
    Max Points             =            256
    Max Functions          =             84

   => Loading Basis Set <=

    Name: (DEF2-SVP AUX)
    Role: JKFIT
    Keyword: DF_BASIS_SCF
    atoms 1   entry CR         line  1731 file /usr/share/psi4/basis/def2-svp-jkfit.gbs 
    atoms 2-3 entry O          line   323 file /usr/share/psi4/basis/def2-svp-jkfit.gbs 
    atoms 4-5 entry F          line   383 file /usr/share/psi4/basis/def2-svp-jkfit.gbs 

   => Loading Basis Set <=

    Name: DEF2-SVP
    Role: ORBITAL
    Keyword: BASIS
    atoms 1   entry CR         line   614 file /usr/share/psi4/basis/def2-svp.gbs 
    atoms 2-3 entry O          line   130 file /usr/share/psi4/basis/def2-svp.gbs 
    atoms 4-5 entry F          line   150 file /usr/share/psi4/basis/def2-svp.gbs 

  Reading orbitals from file 180, no projection.

  ==> Pre-Iterations <==

   -------------------------------------------------------
    Irrep   Nso     Nmo     Nalpha   Nbeta   Ndocc  Nsocc
   -------------------------------------------------------
     A         87      87       0       0       0       0
   -------------------------------------------------------
    Total      87      87      29      29      29       0
   -------------------------------------------------------

  ==> Integral Setup <==

  DFHelper Memory: AOs need 0.037 GiB; user supplied 5.062 GiB. Using in-core AOs.

  ==> MemDFJK: Density-Fitted J/K Matrices <==

    J tasked:                   Yes
    K tasked:                    No
    wK tasked:                   No
    OpenMP threads:               4
    Memory [MiB]:              5183
    Algorithm:                 Core
    Schwarz Cutoff:           1E-12
    Mask sparsity (%):       1.0041
    Fitting Condition:        1E-10

   => Auxiliary Basis Set <=

  Basis Set: (DEF2-SVP AUX)
    Blend: DEF2-SVP-JKFIT
    Number of shells: 158
    Number of basis function: 572
    Number of Cartesian functions: 749
    Spherical Harmonics?: true
    Max angular momentum: 6

  Cached 100.0% of DFT collocation blocks in 0.526 [GiB].

  Minimum eigenvalue in the overlap matrix is 1.8249376499E-02.
  Using Symmetric Orthogonalization.

  SCF Guess: Orbitals guess was supplied from a previous computation.

  ==> Iterations <==

                           Total Energy        Delta E     RMS |[F,P]|

   @DF-RKS iter   0: -1394.13157032975710   -1.39413e+03   9.82460e-04 
   @DF-RKS iter   1: -1394.13311262956222   -1.54230e-03   2.52537e-04 DIIS
   @DF-RKS iter   2: -1394.12637523697094    6.73739e-03   1.62839e-03 DIIS
   @DF-RKS iter   3: -1394.13294667584296   -6.57144e-03   3.72307e-04 DIIS
   @DF-RKS iter   4: -1394.13330685031042   -3.60174e-04   3.46918e-05 DIIS
   @DF-RKS iter   5: -1394.13330977565556   -2.92535e-06   3.64859e-06 DIIS
   @DF-RKS iter   6: -1394.13330980200885   -2.63533e-08   1.55716e-06 DIIS
   @DF-RKS iter   7: -1394.13330979892589    3.08296e-09   1.73459e-06 DIIS
   @DF-RKS iter   8: -1394.13330980817977   -9.25388e-09   2.93393e-07 DIIS
   @DF-RKS iter   9: -1394.13330980841670   -2.36923e-10   5.56452e-08 DIIS
   @DF-RKS iter  10: -1394.13330980842466   -7.95808e-12   5.42332e-09 DIIS
  Energy and wave function converged.


  ==> Post-Iterations <==

    Orbital Energies [Eh]
    ---------------------

    Doubly Occupied:                                                      

       1A   -215.548271     2A    -24.842557     3A    -24.543857  
       4A    -24.543852     5A    -21.123589     6A    -21.123492  
       7A    -21.119954     8A    -19.056729     9A    -19.056723  
      10A     -3.039958    11A     -1.990845    12A     -1.990815  
      13A     -1.985101    14A     -1.146535    15A     -1.141123  
      16A     -0.941622    17A     -0.931318    18A     -0.499529  
      19A     -0.492062    20A     -0.476501    21A     -0.475305  
      22A     -0.475112    23A     -0.434190    24A     -0.425711  
      25A     -0.411730    26A     -0.391375    27A     -0.378239  
      28A     -0.377129    29A     -0.336404  

    Virtual:                                                              

      30A     -0.218281    31A     -0.204721    32A     -0.171463  
      33A     -0.137941    34A     -0.111663    35A      0.016681  
      36A      0.164455    37A      0.221116    38A      0.223523  
      39A      0.225168    40A      0.567656    41A      0.571840  
      42A      0.589765    43A      0.626844    44A      0.638193  
      45A      0.913601    46A      0.928601    47A      0.976467  
      48A      0.985919    49A      1.001016    50A      1.031272  
      51A      1.118698    52A      1.148834    53A      1.187815  
      54A      1.222128    55A      1.229232    56A      1.240433  
      57A      1.351093    58A      1.423495    59A      1.655350  
      60A      1.671991    61A      2.215182    62A      2.304218  
      63A      2.346417    64A      2.394588    65A      2.530518  
      66A      2.537720    67A      2.556221    68A      2.556955  
      69A      2.568017    70A      2.604038    71A      2.696835  
      72A      2.773617    73A      2.856877    74A      2.917200  
      75A      2.991476    76A      3.025475    77A      3.043978  
      78A      3.054969    79A      3.232052    80A      3.242420  
      81A      3.287975    82A      3.289469    83A      3.305129  
      84A      3.308000    85A      3.333258    86A      3.396519  
      87A      3.535539  

    Final Occupation by Irrep:
              A 
    DOCC [    29 ]

  @DF-RKS Final Energy: -1394.13330980842466

   => Energetics <=

    Nuclear Repulsion Energy =            354.5825365913329961
    One-Electron Energy =               -2624.1085338337038593
    Two-Electron Energy =                 961.6816370841178241
    DFT Exchange-Correlation Energy =     -86.2889496501715740
    Empirical Dispersion Energy =           0.0000000000000000
    VV10 Nonlocal Energy =                  0.0000000000000000
    Total Energy =                      -1394.1333098084246558

Computation Completed


Properties will be evaluated at   0.000000,   0.000000,   0.000000 [a0]

Properties computed using the SCF density matrix

  Nuclear Dipole Moment: [e a0]
     X:    -0.0217      Y:     1.4433      Z:    -0.3177

  Electronic Dipole Moment: [e a0]
     X:     0.0236      Y:    -1.5725      Z:     0.3461

  Dipole Moment: [e a0]
     X:     0.0019      Y:    -0.1292      Z:     0.0284     Total:     0.1323

  Dipole Moment: [D]
     X:     0.0049      Y:    -0.3284      Z:     0.0723     Total:     0.3363


*** tstop() called on thinkpad at Sat Jul 10 15:19:55 2021
Module time:
	user time   =      14.32 seconds =       0.24 minutes
	system time =       0.07 seconds =       0.00 minutes
	total time  =          5 seconds =       0.08 minutes
Total time:
	user time   =      46.20 seconds =       0.77 minutes
	system time =       0.43 seconds =       0.01 minutes
	total time  =         16 seconds =       0.27 minutes

*** tstart() called on thinkpad
*** at Sat Jul 10 15:19:55 2021


         ------------------------------------------------------------
                                   SCF GRAD                          
                          Rob Parrish, Justin Turney,                
                       Andy Simmonett, and Alex Sokolov              
         ------------------------------------------------------------

  ==> Geometry <==

    Molecular point group: c1
    Full point group: C1

    Geometry (in Angstrom), charge = 0, multiplicity = 1:

       Center              X                  Y                   Z               Mass       
    ------------   -----------------  -----------------  -----------------  -----------------
         CR          -0.000892783259     0.059407287363    -0.013075268086    51.940506230000
         O            1.010402813369     0.805052549889    -0.917038426856    15.994914619570
         O           -1.038822872160     1.086313711468     0.500753256155    15.994914619570
         F           -0.778841261556    -1.130208739982    -0.901499641550    18.998403162730
         F            0.805209163320    -0.624564340605     1.287720617247    18.998403162730

  Nuclear repulsion =  354.582536591332996

  ==> Basis Set <==

  Basis Set: DEF2-SVP
    Blend: DEF2-SVP
    Number of shells: 35
    Number of basis function: 87
    Number of Cartesian functions: 96
    Spherical Harmonics?: true
    Max angular momentum: 3

  ==> DFJKGrad: Density-Fitted SCF Gradients <==

    Gradient:                    1
    J tasked:                  Yes
    K tasked:                   No
    wK tasked:                  No
    OpenMP threads:              4
    Integrals threads:           4
    Memory [MiB]:             5722
    Schwarz Cutoff:          0E+00
    Fitting Condition:       1E-10

   => Auxiliary Basis Set <=

  Basis Set: (DEF2-SVP AUX)
    Blend: DEF2-SVP-JKFIT
    Number of shells: 158
    Number of basis function: 572
    Number of Cartesian functions: 749
    Spherical Harmonics?: true
    Max angular momentum: 6

  ==> DFT Potential <==

   => Composite Functional: MY R2SCAN <= 

    Re-regularized SCAN exchange by Furness et al
    Re-regularized SCAN correlation by Furness et al
    J. W. Furness, A. D. Kaplan, J. Ning, J. P. Perdew, and J. Sun, J. Phys. Chem. Lett. 11, 8208 (2020)
    J. W. Furness, A. D. Kaplan, J. Ning, J. P. Perdew, and J. Sun, J. Phys. Chem. Lett. 11, 9248 (2020)

    Deriv               =              1
    GGA                 =           TRUE
    Meta                =           TRUE

    Exchange Hybrid     =          FALSE
    MP2 Hybrid          =          FALSE

   => Exchange Functionals <=

    1.0000   XC_mgga_x_r2scan

   => Correlation Functionals <=

    1.0000   XC_mgga_c_r2scan

   => Molecular Quadrature <=

    Radial Scheme          =       TREUTLER
    Pruning Scheme         =           FLAT
    Nuclear Scheme         =       TREUTLER

    BS radius alpha        =              1
    Pruning alpha          =              1
    Radial Points          =             75
    Spherical Points       =            302
    Total Points           =         113250
    Total Blocks           =            922
    Max Points             =            256
    Max Functions          =             84


  -Total Gradient:
     Atom            X                  Y                   Z
    ------   -----------------  -----------------  -----------------
       1        0.000284560816    -0.018938386020     0.004168348788
       2        0.001085852466     0.001635174089    -0.001163360742
       3       -0.001139611085     0.001940718050     0.000376328745
       4        0.004670434564     0.007337637491     0.005294787722
       5       -0.004845267823     0.004300143539    -0.007856306447


*** tstop() called on thinkpad at Sat Jul 10 15:19:57 2021
Module time:
	user time   =       4.29 seconds =       0.07 minutes
	system time =       0.02 seconds =       0.00 minutes
	total time  =          2 seconds =       0.03 minutes
Total time:
	user time   =      50.49 seconds =       0.84 minutes
	system time =       0.45 seconds =       0.01 minutes
	total time  =         18 seconds =       0.30 minutes

			-----------------------------------------
			 OPTKING 2.0: for geometry optimizations 
			  - R.A. King,  Bethel University        
			-----------------------------------------

	Previous internal coordinate definitions found.
	---Fragment 1 Geometry and Gradient---
	 CR         -0.0016871158        0.1122635030       -0.0247086757
	 O           1.9093845937        1.5213288359       -1.7329514733
	 O          -1.9630907212        2.0528354010        0.9462865106
	 F          -1.4717966795       -2.1357849832       -1.7035874247
	 F           1.5216247924       -1.1802555515        2.4334392927
	             0.0002845608       -0.0189383860        0.0041683488
	             0.0010858525        0.0016351741       -0.0011633607
	            -0.0011396111        0.0019407180        0.0003763287
	             0.0046704346        0.0073376375        0.0052947877
	            -0.0048452678        0.0043001435       -0.0078563064

	---Fragment 1 Intrafragment Coordinates---
	 - Coordinate -           - BOHR/RAD -       - ANG/DEG -
	 R(1,2)           =         2.925022	       1.547855
	 R(1,3)           =         2.925022	       1.547855
	 R(1,4)           =         3.167582	       1.676212
	 R(1,5)           =         3.167582	       1.676212
	 B(2,1,3)         =         1.888499	     108.202996
	 B(2,1,4)         =         1.913013	     109.607598
	 B(2,1,5)         =         1.913013	     109.607597
	 B(3,1,4)         =         1.913014	     109.607631
	 B(3,1,5)         =         1.913014	     109.607640
	 B(4,1,5)         =         1.922944	     110.176553

	Current energy   :     -1394.1333098084

	Energy change for the previous step:
		Projected    :        -0.0013810636
		Actual       :        -0.0008139477

	Performing BFGS update.
	Previous computed or guess Hessian on step 1.
	Steps to be used in Hessian update: 1
	Taking RFO optimization step.
	Going to follow RFO solution 1.
	Using RFO vector 1.
	Norm of target step-size    0.01925
	Projected energy change by RFO approximation:        -0.0002776763

	Back-transformation to cartesian coordinates...
	Successfully converged to displaced geometry.

	--- Internal Coordinate Step in ANG or DEG, aJ/ANG or AJ/DEG ---
	 ---------------------------------------------------------------------------
	   Coordinate                Previous        Force       Change         New 
	   ----------                --------       ------       ------       ------
	    1 R(1,2)          =      1.547855    -0.021617    -0.000589     1.547266
	    2 R(1,3)          =      1.547855    -0.021618    -0.000589     1.547266
	    3 R(1,4)          =      1.676212     0.087479     0.005328     1.681540
	    4 R(1,5)          =      1.676212     0.087480     0.005328     1.681540
	    5 B(2,1,3)        =    108.202996     0.000275     0.212569   108.415565
	    6 B(2,1,4)        =    109.607598    -0.000015     0.116712   109.724310
	    7 B(2,1,5)        =    109.607597    -0.000015     0.116724   109.724321
	    8 B(3,1,4)        =    109.607631    -0.000015     0.116642   109.724272
	    9 B(3,1,5)        =    109.607640    -0.000015     0.116638   109.724278
	   10 B(4,1,5)        =    110.176553    -0.000205    -0.665162   109.511391
	 ---------------------------------------------------------------------------
	Successfully symmetrized geometry.

  ==> Convergence Check <==

  Measures of convergence in internal coordinates in au.
  Criteria marked as inactive (o), active & met (*), and active & unmet ( ).
  ---------------------------------------------------------------------------------------------
   Step     Total Energy     Delta E     MAX Force     RMS Force      MAX Disp      RMS Disp   
  ---------------------------------------------------------------------------------------------
    Convergence Criteria             o    2.00e-06 *    1.00e-06 *    6.00e-06 *    4.00e-06 *
  ---------------------------------------------------------------------------------------------
      2   -1394.13330981   -8.14e-04 o    1.06e-02      5.10e-03      1.16e-02      6.09e-03    ~
  ---------------------------------------------------------------------------------------------

	Writing optimization data to binary file.
	Structure for next step:
	Cartesian Geometry (in Angstrom)
	   CR    -0.0009728066   0.0647620271  -0.0142541231
	    O     1.0113453770   0.8076636652  -0.9183236375
	    O    -1.0398476704   1.0891939454   0.5008295693
	    F    -0.7780453561  -1.1354036172  -0.8993180205
	    F     0.8045755158  -0.6302155531   1.2879267488
			--------------------------
			 OPTKING Finished Execution 
			--------------------------

    Structure for next step:
    Molecular point group: c1
    Full point group: C1

    Geometry (in Angstrom), charge = 0, multiplicity = 1:

    CR          -0.000953211703     0.063450562401    -0.013965401140
    O            1.011364975849     0.806352203494    -0.918034919039
    O           -1.039828079621     1.087882484803     0.501118293336
    F           -0.778025764346    -1.136715086585    -0.899029302052
    F            0.804595113816    -0.631527020538     1.288215475921

gradient() will perform analytic gradient computation.

*** tstart() called on thinkpad
*** at Sat Jul 10 15:19:57 2021

   => Loading Basis Set <=

    Name: DEF2-SVP
    Role: ORBITAL
    Keyword: BASIS
    atoms 1   entry CR         line   614 file /usr/share/psi4/basis/def2-svp.gbs 
    atoms 2-3 entry O          line   130 file /usr/share/psi4/basis/def2-svp.gbs 
    atoms 4-5 entry F          line   150 file /usr/share/psi4/basis/def2-svp.gbs 


         ---------------------------------------------------------
                                   SCF
               by Justin Turney, Rob Parrish, Andy Simmonett
                          and Daniel G. A. Smith
                              RKS Reference
                        4 Threads,   7629 MiB Core
         ---------------------------------------------------------

  ==> Geometry <==

    Molecular point group: c1
    Full point group: C1

    Geometry (in Angstrom), charge = 0, multiplicity = 1:

       Center              X                  Y                   Z               Mass       
    ------------   -----------------  -----------------  -----------------  -----------------
         CR          -0.000953211703     0.063450562401    -0.013965401140    51.940506230000
         O            1.011364975849     0.806352203494    -0.918034919039    15.994914619570
         O           -1.039828079621     1.087882484803     0.501118293336    15.994914619570
         F           -0.778025764346    -1.136715086585    -0.899029302052    18.998403162730
         F            0.804595113816    -0.631527020538     1.288215475921    18.998403162730

  Running in c1 symmetry.

  Rotational constants: A =      0.15072  B =      0.13812  C =      0.12664 [cm^-1]
  Rotational constants: A =   4518.46907  B =   4140.73335  C =   3796.42612 [MHz]
  Nuclear repulsion =  354.073272519128125

  Charge       = 0
  Multiplicity = 1
  Electrons    = 58
  Nalpha       = 29
  Nbeta        = 29

  ==> Algorithm <==

  SCF Algorithm Type is DF.
  DIIS enabled.
  MOM disabled.
  Fractional occupation disabled.
  Guess Type is READ.
  Energy threshold   = 1.00e-08
  Density threshold  = 1.00e-08
  Integral threshold = 0.00e+00

  ==> Primary Basis <==

  Basis Set: DEF2-SVP
    Blend: DEF2-SVP
    Number of shells: 35
    Number of basis function: 87
    Number of Cartesian functions: 96
    Spherical Harmonics?: true
    Max angular momentum: 3

  ==> DFT Potential <==

   => Composite Functional: MY R2SCAN <= 

    Re-regularized SCAN exchange by Furness et al
    Re-regularized SCAN correlation by Furness et al
    J. W. Furness, A. D. Kaplan, J. Ning, J. P. Perdew, and J. Sun, J. Phys. Chem. Lett. 11, 8208 (2020)
    J. W. Furness, A. D. Kaplan, J. Ning, J. P. Perdew, and J. Sun, J. Phys. Chem. Lett. 11, 9248 (2020)

    Deriv               =              1
    GGA                 =           TRUE
    Meta                =           TRUE

    Exchange Hybrid     =          FALSE
    MP2 Hybrid          =          FALSE

   => Exchange Functionals <=

    1.0000   XC_mgga_x_r2scan

   => Correlation Functionals <=

    1.0000   XC_mgga_c_r2scan

   => Molecular Quadrature <=

    Radial Scheme          =       TREUTLER
    Pruning Scheme         =           FLAT
    Nuclear Scheme         =       TREUTLER

    BS radius alpha        =              1
    Pruning alpha          =              1
    Radial Points          =             75
    Spherical Points       =            302
    Total Points           =         113250
    Total Blocks           =            921
    Max Points             =            255
    Max Functions          =             84

   => Loading Basis Set <=

    Name: (DEF2-SVP AUX)
    Role: JKFIT
    Keyword: DF_BASIS_SCF
    atoms 1   entry CR         line  1731 file /usr/share/psi4/basis/def2-svp-jkfit.gbs 
    atoms 2-3 entry O          line   323 file /usr/share/psi4/basis/def2-svp-jkfit.gbs 
    atoms 4-5 entry F          line   383 file /usr/share/psi4/basis/def2-svp-jkfit.gbs 

   => Loading Basis Set <=

    Name: DEF2-SVP
    Role: ORBITAL
    Keyword: BASIS
    atoms 1   entry CR         line   614 file /usr/share/psi4/basis/def2-svp.gbs 
    atoms 2-3 entry O          line   130 file /usr/share/psi4/basis/def2-svp.gbs 
    atoms 4-5 entry F          line   150 file /usr/share/psi4/basis/def2-svp.gbs 

  Reading orbitals from file 180, no projection.

  ==> Pre-Iterations <==

   -------------------------------------------------------
    Irrep   Nso     Nmo     Nalpha   Nbeta   Ndocc  Nsocc
   -------------------------------------------------------
     A         87      87       0       0       0       0
   -------------------------------------------------------
    Total      87      87      29      29      29       0
   -------------------------------------------------------

  ==> Integral Setup <==

  DFHelper Memory: AOs need 0.037 GiB; user supplied 5.063 GiB. Using in-core AOs.

  ==> MemDFJK: Density-Fitted J/K Matrices <==

    J tasked:                   Yes
    K tasked:                    No
    wK tasked:                   No
    OpenMP threads:               4
    Memory [MiB]:              5184
    Algorithm:                 Core
    Schwarz Cutoff:           1E-12
    Mask sparsity (%):       1.0305
    Fitting Condition:        1E-10

   => Auxiliary Basis Set <=

  Basis Set: (DEF2-SVP AUX)
    Blend: DEF2-SVP-JKFIT
    Number of shells: 158
    Number of basis function: 572
    Number of Cartesian functions: 749
    Spherical Harmonics?: true
    Max angular momentum: 6

  Cached 100.0% of DFT collocation blocks in 0.525 [GiB].

  Minimum eigenvalue in the overlap matrix is 1.8281670421E-02.
  Using Symmetric Orthogonalization.

  SCF Guess: Orbitals guess was supplied from a previous computation.

  ==> Iterations <==

                           Total Energy        Delta E     RMS |[F,P]|

   @DF-RKS iter   0: -1394.13141535673458   -1.39413e+03   3.33935e-04 
   @DF-RKS iter   1: -1394.13348127691324   -2.06592e-03   5.57312e-05 DIIS
   @DF-RKS iter   2: -1394.13323573509138    2.45542e-04   3.05756e-04 DIIS
   @DF-RKS iter   3: -1394.13346306461426   -2.27330e-04   1.07092e-04 DIIS
   @DF-RKS iter   4: -1394.13349135540693   -2.82908e-05   1.58337e-05 DIIS
   @DF-RKS iter   5: -1394.13349189770042   -5.42293e-07   3.12164e-06 DIIS
   @DF-RKS iter   6: -1394.13349192443093   -2.67305e-08   2.82042e-07 DIIS
   @DF-RKS iter   7: -1394.13349192418718    2.43745e-10   3.99357e-07 DIIS
   @DF-RKS iter   8: -1394.13349192467444   -4.87262e-10   7.42234e-08 DIIS
   @DF-RKS iter   9: -1394.13349192469809   -2.36469e-11   1.66569e-08 DIIS
   @DF-RKS iter  10: -1394.13349192469286    5.22959e-12   1.05218e-08 DIIS
   @DF-RKS iter  11: -1394.13349192469468   -1.81899e-12   3.42863e-10 DIIS
  Energy and wave function converged.


  ==> Post-Iterations <==

    Orbital Energies [Eh]
    ---------------------

    Doubly Occupied:                                                      

       1A   -215.549499     2A    -24.843552     3A    -24.543127  
       4A    -24.543119     5A    -21.124629     6A    -21.124492  
       7A    -21.120968     8A    -19.057670     9A    -19.057665  
      10A     -3.040491    11A     -1.991562    12A     -1.991267  
      13A     -1.985142    14A     -1.145127    15A     -1.139958  
      16A     -0.942559    17A     -0.932128    18A     -0.498384  
      19A     -0.490715    20A     -0.475980    21A     -0.475110  
      22A     -0.474296    23A     -0.434415    24A     -0.424536  
      25A     -0.411323    26A     -0.391918    27A     -0.378825  
      28A     -0.377711    29A     -0.337340  

    Virtual:                                                              

      30A     -0.219620    31A     -0.205406    32A     -0.172745  
      33A     -0.139034    34A     -0.112295    35A      0.016722  
      36A      0.164712    37A      0.220990    38A      0.221708  
      39A      0.224966    40A      0.567965    41A      0.571107  
      42A      0.590876    43A      0.625385    44A      0.638172  
      45A      0.913980    46A      0.928148    47A      0.975518  
      48A      0.985837    49A      1.000296    50A      1.030216  
      51A      1.118507    52A      1.148455    53A      1.185805  
      54A      1.223280    55A      1.228006    56A      1.239909  
      57A      1.348938    58A      1.425339    59A      1.654655  
      60A      1.676648    61A      2.213748    62A      2.304565  
      63A      2.345405    64A      2.395051    65A      2.530265  
      66A      2.538137    67A      2.555887    68A      2.556430  
      69A      2.571389    70A      2.603528    71A      2.697148  
      72A      2.774875    73A      2.862591    74A      2.919634  
      75A      2.993212    76A      3.026216    77A      3.044120  
      78A      3.055037    79A      3.231039    80A      3.242369  
      81A      3.282099    82A      3.282741    83A      3.303036  
      84A      3.303875    85A      3.333939    86A      3.397424  
      87A      3.533031  

    Final Occupation by Irrep:
              A 
    DOCC [    29 ]

  @DF-RKS Final Energy: -1394.13349192469468

   => Energetics <=

    Nuclear Repulsion Energy =            354.0732725191281247
    One-Electron Energy =               -2623.0851388720320756
    Two-Electron Energy =                 961.1630563195418517
    DFT Exchange-Correlation Energy =     -86.2846818913327240
    Empirical Dispersion Energy =           0.0000000000000000
    VV10 Nonlocal Energy =                  0.0000000000000000
    Total Energy =                      -1394.1334919246946811

Computation Completed


Properties will be evaluated at   0.000000,   0.000000,   0.000000 [a0]

Properties computed using the SCF density matrix

  Nuclear Dipole Moment: [e a0]
     X:    -0.0217      Y:     1.4409      Z:    -0.3171

  Electronic Dipole Moment: [e a0]
     X:     0.0232      Y:    -1.5470      Z:     0.3405

  Dipole Moment: [e a0]
     X:     0.0016      Y:    -0.1060      Z:     0.0233     Total:     0.1086

  Dipole Moment: [D]
     X:     0.0041      Y:    -0.2695      Z:     0.0593     Total:     0.2760


*** tstop() called on thinkpad at Sat Jul 10 15:20:02 2021
Module time:
	user time   =      15.37 seconds =       0.26 minutes
	system time =       0.05 seconds =       0.00 minutes
	total time  =          5 seconds =       0.08 minutes
Total time:
	user time   =      65.90 seconds =       1.10 minutes
	system time =       0.50 seconds =       0.01 minutes
	total time  =         23 seconds =       0.38 minutes

*** tstart() called on thinkpad
*** at Sat Jul 10 15:20:02 2021


         ------------------------------------------------------------
                                   SCF GRAD                          
                          Rob Parrish, Justin Turney,                
                       Andy Simmonett, and Alex Sokolov              
         ------------------------------------------------------------

  ==> Geometry <==

    Molecular point group: c1
    Full point group: C1

    Geometry (in Angstrom), charge = 0, multiplicity = 1:

       Center              X                  Y                   Z               Mass       
    ------------   -----------------  -----------------  -----------------  -----------------
         CR          -0.000953211703     0.063450562401    -0.013965401140    51.940506230000
         O            1.011364975849     0.806352203494    -0.918034919039    15.994914619570
         O           -1.039828079621     1.087882484803     0.501118293336    15.994914619570
         F           -0.778025764346    -1.136715086585    -0.899029302052    18.998403162730
         F            0.804595113816    -0.631527020538     1.288215475921    18.998403162730

  Nuclear repulsion =  354.073272519128125

  ==> Basis Set <==

  Basis Set: DEF2-SVP
    Blend: DEF2-SVP
    Number of shells: 35
    Number of basis function: 87
    Number of Cartesian functions: 96
    Spherical Harmonics?: true
    Max angular momentum: 3

  ==> DFJKGrad: Density-Fitted SCF Gradients <==

    Gradient:                    1
    J tasked:                  Yes
    K tasked:                   No
    wK tasked:                  No
    OpenMP threads:              4
    Integrals threads:           4
    Memory [MiB]:             5722
    Schwarz Cutoff:          0E+00
    Fitting Condition:       1E-10

   => Auxiliary Basis Set <=

  Basis Set: (DEF2-SVP AUX)
    Blend: DEF2-SVP-JKFIT
    Number of shells: 158
    Number of basis function: 572
    Number of Cartesian functions: 749
    Spherical Harmonics?: true
    Max angular momentum: 6

  ==> DFT Potential <==

   => Composite Functional: MY R2SCAN <= 

    Re-regularized SCAN exchange by Furness et al
    Re-regularized SCAN correlation by Furness et al
    J. W. Furness, A. D. Kaplan, J. Ning, J. P. Perdew, and J. Sun, J. Phys. Chem. Lett. 11, 8208 (2020)
    J. W. Furness, A. D. Kaplan, J. Ning, J. P. Perdew, and J. Sun, J. Phys. Chem. Lett. 11, 9248 (2020)

    Deriv               =              1
    GGA                 =           TRUE
    Meta                =           TRUE

    Exchange Hybrid     =          FALSE
    MP2 Hybrid          =          FALSE

   => Exchange Functionals <=

    1.0000   XC_mgga_x_r2scan

   => Correlation Functionals <=

    1.0000   XC_mgga_c_r2scan

   => Molecular Quadrature <=

    Radial Scheme          =       TREUTLER
    Pruning Scheme         =           FLAT
    Nuclear Scheme         =       TREUTLER

    BS radius alpha        =              1
    Pruning alpha          =              1
    Radial Points          =             75
    Spherical Points       =            302
    Total Points           =         113250
    Total Blocks           =            921
    Max Points             =            255
    Max Functions          =             84


  -Total Gradient:
     Atom            X                  Y                   Z
    ------   -----------------  -----------------  -----------------
       1        0.000192358041    -0.012784712854     0.002813812049
       2        0.001104255883     0.001099199303    -0.001052898554
       3       -0.001142067223     0.001407548009     0.000501256818
       4        0.003085390191     0.004244113022     0.003617637028
       5       -0.003182980414     0.002243232498    -0.005045500863


*** tstop() called on thinkpad at Sat Jul 10 15:20:04 2021
Module time:
	user time   =       4.28 seconds =       0.07 minutes
	system time =       0.03 seconds =       0.00 minutes
	total time  =          2 seconds =       0.03 minutes
Total time:
	user time   =      70.18 seconds =       1.17 minutes
	system time =       0.53 seconds =       0.01 minutes
	total time  =         25 seconds =       0.42 minutes

			-----------------------------------------
			 OPTKING 2.0: for geometry optimizations 
			  - R.A. King,  Bethel University        
			-----------------------------------------

	Previous internal coordinate definitions found.
	---Fragment 1 Geometry and Gradient---
	 CR         -0.0018013091        0.1199041854       -0.0263907834
	 O           1.9112028172        1.5237848253       -1.7348345706
	 O          -1.9649902880        2.0557999530        0.9469763309
	 F          -1.4702556132       -2.1480801963       -1.6989191596
	 F           1.5204644070       -1.1934131096        2.4343744401
	             0.0001923580       -0.0127847129        0.0028138120
	             0.0011042559        0.0010991993       -0.0010528986
	            -0.0011420672        0.0014075480        0.0005012568
	             0.0030853902        0.0042441130        0.0036176370
	            -0.0031829804        0.0022432325       -0.0050455009

	---Fragment 1 Intrafragment Coordinates---
	 - Coordinate -           - BOHR/RAD -       - ANG/DEG -
	 R(1,2)           =         2.923909	       1.547266
	 R(1,3)           =         2.923910	       1.547266
	 R(1,4)           =         3.177650	       1.681540
	 R(1,5)           =         3.177650	       1.681540
	 B(2,1,3)         =         1.892209	     108.415565
	 B(2,1,4)         =         1.915050	     109.724310
	 B(2,1,5)         =         1.915051	     109.724321
	 B(3,1,4)         =         1.915050	     109.724272
	 B(3,1,5)         =         1.915050	     109.724278
	 B(4,1,5)         =         1.911334	     109.511391

	Current energy   :     -1394.1334919247

	Energy change for the previous step:
		Projected    :        -0.0002776763
		Actual       :        -0.0001821163

	Performing BFGS update.
	Previous computed or guess Hessian on step 1.
	Steps to be used in Hessian update: 2 1
	Taking RFO optimization step.
	Going to follow RFO solution 1.
	Using RFO vector 1.
	Norm of target step-size    0.02738
	Projected energy change by RFO approximation:        -0.0003027260

	Back-transformation to cartesian coordinates...
	Successfully converged to displaced geometry.

	--- Internal Coordinate Step in ANG or DEG, aJ/ANG or AJ/DEG ---
	 ---------------------------------------------------------------------------
	   Coordinate                Previous        Force       Change         New 
	   ----------                --------       ------       ------       ------
	    1 R(1,2)          =      1.547266    -0.019110    -0.001285     1.545981
	    2 R(1,3)          =      1.547266    -0.019111    -0.001285     1.545981
	    3 R(1,4)          =      1.681540     0.056082     0.008792     1.690332
	    4 R(1,5)          =      1.681540     0.056082     0.008792     1.690332
	    5 B(2,1,3)        =    108.415565     0.000170     0.372817   108.788382
	    6 B(2,1,4)        =    109.724310    -0.000023     0.075784   109.800095
	    7 B(2,1,5)        =    109.724321    -0.000023     0.075783   109.800104
	    8 B(3,1,4)        =    109.724272    -0.000023     0.075813   109.800086
	    9 B(3,1,5)        =    109.724278    -0.000023     0.075809   109.800087
	   10 B(4,1,5)        =    109.511391    -0.000074    -0.668867   108.842524
	 ---------------------------------------------------------------------------
	Successfully symmetrized geometry.

  ==> Convergence Check <==

  Measures of convergence in internal coordinates in au.
  Criteria marked as inactive (o), active & met (*), and active & unmet ( ).
  ---------------------------------------------------------------------------------------------
   Step     Total Energy     Delta E     MAX Force     RMS Force      MAX Disp      RMS Disp   
  ---------------------------------------------------------------------------------------------
    Convergence Criteria             o    2.00e-06 *    1.00e-06 *    6.00e-06 *    4.00e-06 *
  ---------------------------------------------------------------------------------------------
      3   -1394.13349192   -1.82e-04 o    6.81e-03      3.31e-03      1.66e-02      8.66e-03    ~
  ---------------------------------------------------------------------------------------------

	Writing optimization data to binary file.
	Structure for next step:
	Cartesian Geometry (in Angstrom)
	   CR    -0.0010587561   0.0704624145  -0.0155086030
	    O     1.0128769868   0.8084288697  -0.9196086200
	    O    -1.0414089483   1.0903839365   0.5016844133
	    F    -0.7787817491  -1.1427792186  -0.8989192435
	    F     0.8055255007  -0.6370528593   1.2906562004
			--------------------------
			 OPTKING Finished Execution 
			--------------------------

    Structure for next step:
    Molecular point group: c1
    Full point group: C1

    Geometry (in Angstrom), charge = 0, multiplicity = 1:

    CR          -0.001031936475     0.068680737536    -0.015116483206
    O            1.012903810452     0.806647195605    -0.919216503728
    O           -1.041382132767     1.088602263528     0.502076535154
    F           -0.778754932566    -1.144560900371    -0.898527127198
    F            0.805552323509    -0.638834539091     1.291048325322

gradient() will perform analytic gradient computation.

*** tstart() called on thinkpad
*** at Sat Jul 10 15:20:04 2021

   => Loading Basis Set <=

    Name: DEF2-SVP
    Role: ORBITAL
    Keyword: BASIS
    atoms 1   entry CR         line   614 file /usr/share/psi4/basis/def2-svp.gbs 
    atoms 2-3 entry O          line   130 file /usr/share/psi4/basis/def2-svp.gbs 
    atoms 4-5 entry F          line   150 file /usr/share/psi4/basis/def2-svp.gbs 


         ---------------------------------------------------------
                                   SCF
               by Justin Turney, Rob Parrish, Andy Simmonett
                          and Daniel G. A. Smith
                              RKS Reference
                        4 Threads,   7629 MiB Core
         ---------------------------------------------------------

  ==> Geometry <==

    Molecular point group: c1
    Full point group: C1

    Geometry (in Angstrom), charge = 0, multiplicity = 1:

       Center              X                  Y                   Z               Mass       
    ------------   -----------------  -----------------  -----------------  -----------------
         CR          -0.001031936475     0.068680737536    -0.015116483206    51.940506230000
         O            1.012903810452     0.806647195605    -0.919216503728    15.994914619570
         O           -1.041382132767     1.088602263528     0.502076535154    15.994914619570
         F           -0.778754932566    -1.144560900371    -0.898527127198    18.998403162730
         F            0.805552323509    -0.638834539091     1.291048325322    18.998403162730

  Running in c1 symmetry.

  Rotational constants: A =      0.14971  B =      0.13778  C =      0.12592 [cm^-1]
  Rotational constants: A =   4488.04976  B =   4130.41582  C =   3774.90827 [MHz]
  Nuclear repulsion =  353.274198346938306

  Charge       = 0
  Multiplicity = 1
  Electrons    = 58
  Nalpha       = 29
  Nbeta        = 29

  ==> Algorithm <==

  SCF Algorithm Type is DF.
  DIIS enabled.
  MOM disabled.
  Fractional occupation disabled.
  Guess Type is READ.
  Energy threshold   = 1.00e-08
  Density threshold  = 1.00e-08
  Integral threshold = 0.00e+00

  ==> Primary Basis <==

  Basis Set: DEF2-SVP
    Blend: DEF2-SVP
    Number of shells: 35
    Number of basis function: 87
    Number of Cartesian functions: 96
    Spherical Harmonics?: true
    Max angular momentum: 3

  ==> DFT Potential <==

   => Composite Functional: MY R2SCAN <= 

    Re-regularized SCAN exchange by Furness et al
    Re-regularized SCAN correlation by Furness et al
    J. W. Furness, A. D. Kaplan, J. Ning, J. P. Perdew, and J. Sun, J. Phys. Chem. Lett. 11, 8208 (2020)
    J. W. Furness, A. D. Kaplan, J. Ning, J. P. Perdew, and J. Sun, J. Phys. Chem. Lett. 11, 9248 (2020)

    Deriv               =              1
    GGA                 =           TRUE
    Meta                =           TRUE

    Exchange Hybrid     =          FALSE
    MP2 Hybrid          =          FALSE

   => Exchange Functionals <=

    1.0000   XC_mgga_x_r2scan

   => Correlation Functionals <=

    1.0000   XC_mgga_c_r2scan

   => Molecular Quadrature <=

    Radial Scheme          =       TREUTLER
    Pruning Scheme         =           FLAT
    Nuclear Scheme         =       TREUTLER

    BS radius alpha        =              1
    Pruning alpha          =              1
    Radial Points          =             75
    Spherical Points       =            302
    Total Points           =         113250
    Total Blocks           =            918
    Max Points             =            256
    Max Functions          =             84

   => Loading Basis Set <=

    Name: (DEF2-SVP AUX)
    Role: JKFIT
    Keyword: DF_BASIS_SCF
    atoms 1   entry CR         line  1731 file /usr/share/psi4/basis/def2-svp-jkfit.gbs 
    atoms 2-3 entry O          line   323 file /usr/share/psi4/basis/def2-svp-jkfit.gbs 
    atoms 4-5 entry F          line   383 file /usr/share/psi4/basis/def2-svp-jkfit.gbs 

   => Loading Basis Set <=

    Name: DEF2-SVP
    Role: ORBITAL
    Keyword: BASIS
    atoms 1   entry CR         line   614 file /usr/share/psi4/basis/def2-svp.gbs 
    atoms 2-3 entry O          line   130 file /usr/share/psi4/basis/def2-svp.gbs 
    atoms 4-5 entry F          line   150 file /usr/share/psi4/basis/def2-svp.gbs 

  Reading orbitals from file 180, no projection.

  ==> Pre-Iterations <==

   -------------------------------------------------------
    Irrep   Nso     Nmo     Nalpha   Nbeta   Ndocc  Nsocc
   -------------------------------------------------------
     A         87      87       0       0       0       0
   -------------------------------------------------------
    Total      87      87      29      29      29       0
   -------------------------------------------------------

  ==> Integral Setup <==

  DFHelper Memory: AOs need 0.037 GiB; user supplied 5.064 GiB. Using in-core AOs.

  ==> MemDFJK: Density-Fitted J/K Matrices <==

    J tasked:                   Yes
    K tasked:                    No
    wK tasked:                   No
    OpenMP threads:               4
    Memory [MiB]:              5185
    Algorithm:                 Core
    Schwarz Cutoff:           1E-12
    Mask sparsity (%):       1.0305
    Fitting Condition:        1E-10

   => Auxiliary Basis Set <=

  Basis Set: (DEF2-SVP AUX)
    Blend: DEF2-SVP-JKFIT
    Number of shells: 158
    Number of basis function: 572
    Number of Cartesian functions: 749
    Spherical Harmonics?: true
    Max angular momentum: 6

  Cached 100.0% of DFT collocation blocks in 0.524 [GiB].

  Minimum eigenvalue in the overlap matrix is 1.8338821663E-02.
  Using Symmetric Orthogonalization.

  SCF Guess: Orbitals guess was supplied from a previous computation.

  ==> Iterations <==

                           Total Energy        Delta E     RMS |[F,P]|

   @DF-RKS iter   0: -1394.13039073487812   -1.39413e+03   5.10467e-04 
   @DF-RKS iter   1: -1394.13355789118850   -3.16716e-03   1.12200e-04 DIIS
   @DF-RKS iter   2: -1394.13227912387219    1.27877e-03   7.05936e-04 DIIS
   @DF-RKS iter   3: -1394.13350654778515   -1.22742e-03   1.87529e-04 DIIS
   @DF-RKS iter   4: -1394.13359840049134   -9.18527e-05   2.01372e-05 DIIS
   @DF-RKS iter   5: -1394.13359930570891   -9.05218e-07   5.06926e-06 DIIS
   @DF-RKS iter   6: -1394.13359937969699   -7.39881e-08   3.91815e-07 DIIS
   @DF-RKS iter   7: -1394.13359938020631   -5.09317e-10   1.09135e-07 DIIS
   @DF-RKS iter   8: -1394.13359938011331    9.29958e-11   2.01506e-07 DIIS
   @DF-RKS iter   9: -1394.13359938024223   -1.28921e-10   1.96797e-08 DIIS
   @DF-RKS iter  10: -1394.13359938023973    2.50111e-12   1.08637e-09 DIIS
  Energy and wave function converged.


  ==> Post-Iterations <==

    Orbital Energies [Eh]
    ---------------------

    Doubly Occupied:                                                      

       1A   -215.551319     2A    -24.845021     3A    -24.541853  
       4A    -24.541843     5A    -21.126156     6A    -21.125969  
       7A    -21.122471     8A    -19.059161     9A    -19.059157  
      10A     -3.041306    11A     -1.992786    12A     -1.991851  
      13A     -1.985213    14A     -1.142824    15A     -1.137937  
      16A     -0.944094    17A     -0.933423    18A     -0.496376  
      19A     -0.488939    20A     -0.475049    21A     -0.474763  
      22A     -0.472921    23A     -0.434722    24A     -0.422784  
      25A     -0.410621    26A     -0.392745    27A     -0.379542  
      28A     -0.378566    29A     -0.338862  

    Virtual:                                                              

      30A     -0.221601    31A     -0.206352    32A     -0.175013  
      33A     -0.140374    34A     -0.113273    35A      0.016732  
      36A      0.164785    37A      0.219519    38A      0.220808  
      39A      0.224248    40A      0.568220    41A      0.570254  
      42A      0.592922    43A      0.623563    44A      0.637760  
      45A      0.914567    46A      0.927369    47A      0.974019  
      48A      0.985573    49A      0.999459    50A      1.028583  
      51A      1.118453    52A      1.148001    53A      1.183192  
      54A      1.223551    55A      1.226457    56A      1.239546  
      57A      1.346267    58A      1.427254    59A      1.654588  
      60A      1.682220    61A      2.211114    62A      2.305004  
      63A      2.343865    64A      2.396245    65A      2.529785  
      66A      2.539851    67A      2.555541    68A      2.555618  
      69A      2.575644    70A      2.602953    71A      2.698867  
      72A      2.776878    73A      2.870840    74A      2.923318  
      75A      2.996239    76A      3.027462    77A      3.044532  
      78A      3.055203    79A      3.231209    80A      3.241399  
      81A      3.271079    82A      3.274822    83A      3.297198  
      84A      3.299205    85A      3.335617    86A      3.398914  
      87A      3.529435  

    Final Occupation by Irrep:
              A 
    DOCC [    29 ]

  @DF-RKS Final Energy: -1394.13359938023973

   => Energetics <=

    Nuclear Repulsion Energy =            353.2741983469383058
    One-Electron Energy =               -2621.4813837898350357
    Two-Electron Energy =                 960.3520106927554707
    DFT Exchange-Correlation Energy =     -86.2784246300983426
    Empirical Dispersion Energy =           0.0000000000000000
    VV10 Nonlocal Energy =                  0.0000000000000000
    Total Energy =                      -1394.1335993802397297

Computation Completed


Properties will be evaluated at   0.000000,   0.000000,   0.000000 [a0]

Properties computed using the SCF density matrix

  Nuclear Dipole Moment: [e a0]
     X:    -0.0216      Y:     1.4358      Z:    -0.3160

  Electronic Dipole Moment: [e a0]
     X:     0.0227      Y:    -1.5082      Z:     0.3319

  Dipole Moment: [e a0]
     X:     0.0011      Y:    -0.0724      Z:     0.0159     Total:     0.0742

  Dipole Moment: [D]
     X:     0.0028      Y:    -0.1841      Z:     0.0405     Total:     0.1885


*** tstop() called on thinkpad at Sat Jul 10 15:20:09 2021
Module time:
	user time   =      14.34 seconds =       0.24 minutes
	system time =       0.05 seconds =       0.00 minutes
	total time  =          5 seconds =       0.08 minutes
Total time:
	user time   =      84.57 seconds =       1.41 minutes
	system time =       0.58 seconds =       0.01 minutes
	total time  =         30 seconds =       0.50 minutes

*** tstart() called on thinkpad
*** at Sat Jul 10 15:20:09 2021


         ------------------------------------------------------------
                                   SCF GRAD                          
                          Rob Parrish, Justin Turney,                
                       Andy Simmonett, and Alex Sokolov              
         ------------------------------------------------------------

  ==> Geometry <==

    Molecular point group: c1
    Full point group: C1

    Geometry (in Angstrom), charge = 0, multiplicity = 1:

       Center              X                  Y                   Z               Mass       
    ------------   -----------------  -----------------  -----------------  -----------------
         CR          -0.001031936475     0.068680737536    -0.015116483206    51.940506230000
         O            1.012903810452     0.806647195605    -0.919216503728    15.994914619570
         O           -1.041382132767     1.088602263528     0.502076535154    15.994914619570
         F           -0.778754932566    -1.144560900371    -0.898527127198    18.998403162730
         F            0.805552323509    -0.638834539091     1.291048325322    18.998403162730

  Nuclear repulsion =  353.274198346938306

  ==> Basis Set <==

  Basis Set: DEF2-SVP
    Blend: DEF2-SVP
    Number of shells: 35
    Number of basis function: 87
    Number of Cartesian functions: 96
    Spherical Harmonics?: true
    Max angular momentum: 3

  ==> DFJKGrad: Density-Fitted SCF Gradients <==

    Gradient:                    1
    J tasked:                  Yes
    K tasked:                   No
    wK tasked:                  No
    OpenMP threads:              4
    Integrals threads:           4
    Memory [MiB]:             5722
    Schwarz Cutoff:          0E+00
    Fitting Condition:       1E-10

   => Auxiliary Basis Set <=

  Basis Set: (DEF2-SVP AUX)
    Blend: DEF2-SVP-JKFIT
    Number of shells: 158
    Number of basis function: 572
    Number of Cartesian functions: 749
    Spherical Harmonics?: true
    Max angular momentum: 6

  ==> DFT Potential <==

   => Composite Functional: MY R2SCAN <= 

    Re-regularized SCAN exchange by Furness et al
    Re-regularized SCAN correlation by Furness et al
    J. W. Furness, A. D. Kaplan, J. Ning, J. P. Perdew, and J. Sun, J. Phys. Chem. Lett. 11, 8208 (2020)
    J. W. Furness, A. D. Kaplan, J. Ning, J. P. Perdew, and J. Sun, J. Phys. Chem. Lett. 11, 9248 (2020)

    Deriv               =              1
    GGA                 =           TRUE
    Meta                =           TRUE

    Exchange Hybrid     =          FALSE
    MP2 Hybrid          =          FALSE

   => Exchange Functionals <=

    1.0000   XC_mgga_x_r2scan

   => Correlation Functionals <=

    1.0000   XC_mgga_c_r2scan

   => Molecular Quadrature <=

    Radial Scheme          =       TREUTLER
    Pruning Scheme         =           FLAT
    Nuclear Scheme         =       TREUTLER

    BS radius alpha        =              1
    Pruning alpha          =              1
    Radial Points          =             75
    Spherical Points       =            302
    Total Points           =         113250
    Total Blocks           =            918
    Max Points             =            256
    Max Functions          =             84


  -Total Gradient:
     Atom            X                  Y                   Z
    ------   -----------------  -----------------  -----------------
       1        0.000042871034    -0.002850008748     0.000627268512
       2        0.000923961342    -0.000076650726    -0.000650858651
       3       -0.000925497964     0.000177189972     0.000628732670
       4        0.000517672396    -0.000422510691     0.000832056816
       5       -0.000500114767    -0.000747400544    -0.000574553119


*** tstop() called on thinkpad at Sat Jul 10 15:20:11 2021
Module time:
	user time   =       4.28 seconds =       0.07 minutes
	system time =       0.03 seconds =       0.00 minutes
	total time  =          2 seconds =       0.03 minutes
Total time:
	user time   =      88.85 seconds =       1.48 minutes
	system time =       0.61 seconds =       0.01 minutes
	total time  =         32 seconds =       0.53 minutes

			-----------------------------------------
			 OPTKING 2.0: for geometry optimizations 
			  - R.A. King,  Bethel University        
			-----------------------------------------

	Previous internal coordinate definitions found.
	---Fragment 1 Geometry and Gradient---
	 CR         -0.0019500773        0.1297877840       -0.0285660132
	 O           1.9141107932        1.5243422796       -1.7370674420
	 O          -1.9679270229        2.0571601376        0.9487871455
	 F          -1.4716335414       -2.1629066356       -1.6979701867
	 F           1.5222732712       -1.2072223184        2.4397277496
	             0.0000428710       -0.0028500087        0.0006272685
	             0.0009239613       -0.0000766507       -0.0006508587
	            -0.0009254980        0.0001771900        0.0006287327
	             0.0005176724       -0.0004225107        0.0008320568
	            -0.0005001148       -0.0007474005       -0.0005745531

	---Fragment 1 Intrafragment Coordinates---
	 - Coordinate -           - BOHR/RAD -       - ANG/DEG -
	 R(1,2)           =         2.921481	       1.545981
	 R(1,3)           =         2.921481	       1.545981
	 R(1,4)           =         3.194265	       1.690332
	 R(1,5)           =         3.194265	       1.690332
	 B(2,1,3)         =         1.898715	     108.788382
	 B(2,1,4)         =         1.916373	     109.800095
	 B(2,1,5)         =         1.916373	     109.800104
	 B(3,1,4)         =         1.916373	     109.800086
	 B(3,1,5)         =         1.916373	     109.800087
	 B(4,1,5)         =         1.899660	     108.842524

	Current energy   :     -1394.1335993802

	Energy change for the previous step:
		Projected    :        -0.0003027260
		Actual       :        -0.0001074555

	Performing BFGS update.
	Previous computed or guess Hessian on step 1.
	Steps to be used in Hessian update: 3 2
	Taking RFO optimization step.
	Going to follow RFO solution 1.
	Using RFO vector 1.
	Norm of target step-size    0.00426
	Projected energy change by RFO approximation:        -0.0000093411

	Back-transformation to cartesian coordinates...
	Successfully converged to displaced geometry.

	--- Internal Coordinate Step in ANG or DEG, aJ/ANG or AJ/DEG ---
	 ---------------------------------------------------------------------------
	   Coordinate                Previous        Force       Change         New 
	   ----------                --------       ------       ------       ------
	    1 R(1,2)          =      1.545981    -0.011677    -0.000382     1.545599
	    2 R(1,3)          =      1.545981    -0.011677    -0.000382     1.545599
	    3 R(1,4)          =      1.690332     0.006894     0.001044     1.691376
	    4 R(1,5)          =      1.690332     0.006894     0.001044     1.691376
[...]
  Nuclear repulsion =  353.258335095824236

  Charge       = 0
  Multiplicity = 1
  Electrons    = 58
  Nalpha       = 29
  Nbeta        = 29

  ==> Algorithm <==

  SCF Algorithm Type is DF.
  DIIS enabled.
  MOM disabled.
  Fractional occupation disabled.
  Guess Type is READ.
  Energy threshold   = 1.00e-08
  Density threshold  = 1.00e-08
  Integral threshold = 0.00e+00

  ==> Primary Basis <==

  Basis Set: DEF2-SVP
    Blend: DEF2-SVP
    Number of shells: 35
    Number of basis function: 87
    Number of Cartesian functions: 96
    Spherical Harmonics?: true
    Max angular momentum: 3

  ==> DFT Potential <==

   => Composite Functional: MY R2SCAN <= 

    Re-regularized SCAN exchange by Furness et al
    Re-regularized SCAN correlation by Furness et al
    J. W. Furness, A. D. Kaplan, J. Ning, J. P. Perdew, and J. Sun, J. Phys. Chem. Lett. 11, 8208 (2020)
    J. W. Furness, A. D. Kaplan, J. Ning, J. P. Perdew, and J. Sun, J. Phys. Chem. Lett. 11, 9248 (2020)

    Deriv               =              1
    GGA                 =           TRUE
    Meta                =           TRUE

    Exchange Hybrid     =          FALSE
    MP2 Hybrid          =          FALSE

   => Exchange Functionals <=

    1.0000   XC_mgga_x_r2scan

   => Correlation Functionals <=

    1.0000   XC_mgga_c_r2scan

   => Molecular Quadrature <=

    Radial Scheme          =       TREUTLER
    Pruning Scheme         =           FLAT
    Nuclear Scheme         =       TREUTLER

    BS radius alpha        =              1
    Pruning alpha          =              1
    Radial Points          =             75
    Spherical Points       =            302
    Total Points           =         113250
    Total Blocks           =            916
    Max Points             =            256
    Max Functions          =             84

   => Loading Basis Set <=

    Name: (DEF2-SVP AUX)
    Role: JKFIT
    Keyword: DF_BASIS_SCF
    atoms 1   entry CR         line  1731 file /usr/share/psi4/basis/def2-svp-jkfit.gbs 
    atoms 2-3 entry O          line   323 file /usr/share/psi4/basis/def2-svp-jkfit.gbs 
    atoms 4-5 entry F          line   383 file /usr/share/psi4/basis/def2-svp-jkfit.gbs 

   => Loading Basis Set <=

    Name: DEF2-SVP
    Role: ORBITAL
    Keyword: BASIS
    atoms 1   entry CR         line   614 file /usr/share/psi4/basis/def2-svp.gbs 
    atoms 2-3 entry O          line   130 file /usr/share/psi4/basis/def2-svp.gbs 
    atoms 4-5 entry F          line   150 file /usr/share/psi4/basis/def2-svp.gbs 

  Reading orbitals from file 180, no projection.

  ==> Pre-Iterations <==

   -------------------------------------------------------
    Irrep   Nso     Nmo     Nalpha   Nbeta   Ndocc  Nsocc
   -------------------------------------------------------
     A         87      87       0       0       0       0
   -------------------------------------------------------
    Total      87      87      29      29      29       0
   -------------------------------------------------------

  ==> Integral Setup <==

  DFHelper Memory: AOs need 0.037 GiB; user supplied 5.063 GiB. Using in-core AOs.

  ==> MemDFJK: Density-Fitted J/K Matrices <==

    J tasked:                   Yes
    K tasked:                    No
    wK tasked:                   No
    OpenMP threads:               4
    Memory [MiB]:              5184
    Algorithm:                 Core
    Schwarz Cutoff:           1E-12
    Mask sparsity (%):       1.0305
    Fitting Condition:        1E-10

   => Auxiliary Basis Set <=

  Basis Set: (DEF2-SVP AUX)
    Blend: DEF2-SVP-JKFIT
    Number of shells: 158
    Number of basis function: 572
    Number of Cartesian functions: 749
    Spherical Harmonics?: true
    Max angular momentum: 6

  Cached 100.0% of DFT collocation blocks in 0.525 [GiB].

  Minimum eigenvalue in the overlap matrix is 1.8337420317E-02.
  Using Symmetric Orthogonalization.

  SCF Guess: Orbitals guess was supplied from a previous computation.

  ==> Iterations <==

                           Total Energy        Delta E     RMS |[F,P]|

   @DF-RKS iter   0: -1394.13362304496854   -1.39413e+03   1.36730e-07 
   @DF-RKS iter   1: -1394.13362333946156   -2.94493e-07   1.82725e-08 DIIS
   @DF-RKS iter   2: -1394.13362333944065    2.09184e-11   8.95391e-08 DIIS
   @DF-RKS iter   3: -1394.13362333946361   -2.29647e-11   3.18890e-08 DIIS
   @DF-RKS iter   4: -1394.13362333946498   -1.36424e-12   1.15531e-08 DIIS
   @DF-RKS iter   5: -1394.13362333945952    5.45697e-12   8.36499e-09 DIIS
  Energy and wave function converged.


  ==> Post-Iterations <==

    Orbital Energies [Eh]
    ---------------------

    Doubly Occupied:                                                      

       1A   -215.551220     2A    -24.844937     3A    -24.541459  
       4A    -24.541451     5A    -21.126062     6A    -21.125871  
       7A    -21.122401     8A    -19.059347     9A    -19.059343  
      10A     -3.041329    11A     -1.993026    12A     -1.991853  
      13A     -1.985102    14A     -1.142358    15A     -1.137426  
      16A     -0.944404    17A     -0.933711    18A     -0.495878  
      19A     -0.488883    20A     -0.474995    21A     -0.474415  
      22A     -0.472947    23A     -0.434756    24A     -0.422640  
      25A     -0.410524    26A     -0.392908    27A     -0.379502  
      28A     -0.378769    29A     -0.339113  

    Virtual:                                                              

      30A     -0.221438    31A     -0.206189    32A     -0.175376  
      33A     -0.140052    34A     -0.112958    35A      0.016677  
      36A      0.164388    37A      0.220285    38A      0.220758  
      39A      0.223806    40A      0.567896    41A      0.570766  
      42A      0.593504    43A      0.623904    44A      0.637375  
      45A      0.914309    46A      0.927202    47A      0.973888  
      48A      0.985505    49A      0.999715    50A      1.028730  
      51A      1.118548    52A      1.148216    53A      1.183832  
      54A      1.221507    55A      1.226439    56A      1.240149  
      57A      1.346904    58A      1.425956    59A      1.655990  
      60A      1.680568    61A      2.210046    62A      2.304242  
      63A      2.343761    64A      2.397431    65A      2.530213  
      66A      2.540516    67A      2.555431    68A      2.555897  
      69A      2.574657    70A      2.603073    71A      2.700976  
      72A      2.776705    73A      2.870886    74A      2.923467  
      75A      2.997088    76A      3.027826    77A      3.044914  
      78A      3.055422    79A      3.233941    80A      3.241097  
      81A      3.270340    82A      3.274034    83A      3.296616  
      84A      3.298887    85A      3.337451    86A      3.399431  
      87A      3.530088  

    Final Occupation by Irrep:
              A 
    DOCC [    29 ]

  @DF-RKS Final Energy: -1394.13362333945952

   => Energetics <=

    Nuclear Repulsion Energy =            353.2583350958242363
    One-Electron Energy =               -2621.4524799168443678
    Two-Electron Energy =                 960.3397981651447708
    DFT Exchange-Correlation Energy =     -86.2792766835842571
    Empirical Dispersion Energy =           0.0000000000000000
    VV10 Nonlocal Energy =                  0.0000000000000000
    Total Energy =                      -1394.1336233394595183

Computation Completed


Properties will be evaluated at   0.000000,   0.000000,   0.000000 [a0]

Properties computed using the SCF density matrix

  Nuclear Dipole Moment: [e a0]
     X:    -0.0216      Y:     1.4344      Z:    -0.3157

  Electronic Dipole Moment: [e a0]
     X:     0.0226      Y:    -1.5061      Z:     0.3315

  Dipole Moment: [e a0]
     X:     0.0011      Y:    -0.0717      Z:     0.0158     Total:     0.0734

  Dipole Moment: [D]
     X:     0.0027      Y:    -0.1822      Z:     0.0401     Total:     0.1866


*** tstop() called on thinkpad at Sat Jul 10 15:20:45 2021
Module time:
	user time   =       9.03 seconds =       0.15 minutes
	system time =       0.04 seconds =       0.00 minutes
	total time  =          3 seconds =       0.05 minutes
Total time:
	user time   =     179.58 seconds =       2.99 minutes
	system time =       1.03 seconds =       0.02 minutes
	total time  =         66 seconds =       1.10 minutes

*** tstart() called on thinkpad
*** at Sat Jul 10 15:20:45 2021


         ------------------------------------------------------------
                                   SCF GRAD                          
                          Rob Parrish, Justin Turney,                
                       Andy Simmonett, and Alex Sokolov              
         ------------------------------------------------------------

  ==> Geometry <==

    Molecular point group: c1
    Full point group: C1

    Geometry (in Angstrom), charge = 0, multiplicity = 1:

       Center              X                  Y                   Z               Mass       
    ------------   -----------------  -----------------  -----------------  -----------------
         CR          -0.001015294283     0.067569862448    -0.014871994644    51.940506230000
         O            1.011953269063     0.805137194084    -0.918179841955    15.994914619570
         O           -1.040382097367     1.086824557847     0.501763575852    15.994914619570
         F           -0.781512760893    -1.142524834641    -0.902917119139    18.998403162730
         F            0.808222983650    -0.635065590082     1.294160608884    18.998403162730

  Nuclear repulsion =  353.258335095824236

  ==> Basis Set <==

  Basis Set: DEF2-SVP
    Blend: DEF2-SVP
    Number of shells: 35
    Number of basis function: 87
    Number of Cartesian functions: 96
    Spherical Harmonics?: true
    Max angular momentum: 3

  ==> DFJKGrad: Density-Fitted SCF Gradients <==

    Gradient:                    1
    J tasked:                  Yes
    K tasked:                   No
    wK tasked:                  No
    OpenMP threads:              4
    Integrals threads:           4
    Memory [MiB]:             5722
    Schwarz Cutoff:          0E+00
    Fitting Condition:       1E-10

   => Auxiliary Basis Set <=

  Basis Set: (DEF2-SVP AUX)
    Blend: DEF2-SVP-JKFIT
    Number of shells: 158
    Number of basis function: 572
    Number of Cartesian functions: 749
    Spherical Harmonics?: true
    Max angular momentum: 6

  ==> DFT Potential <==

   => Composite Functional: MY R2SCAN <= 

    Re-regularized SCAN exchange by Furness et al
    Re-regularized SCAN correlation by Furness et al
    J. W. Furness, A. D. Kaplan, J. Ning, J. P. Perdew, and J. Sun, J. Phys. Chem. Lett. 11, 8208 (2020)
    J. W. Furness, A. D. Kaplan, J. Ning, J. P. Perdew, and J. Sun, J. Phys. Chem. Lett. 11, 9248 (2020)

    Deriv               =              1
    GGA                 =           TRUE
    Meta                =           TRUE

    Exchange Hybrid     =          FALSE
    MP2 Hybrid          =          FALSE

   => Exchange Functionals <=

    1.0000   XC_mgga_x_r2scan

   => Correlation Functionals <=

    1.0000   XC_mgga_c_r2scan

   => Molecular Quadrature <=

    Radial Scheme          =       TREUTLER
    Pruning Scheme         =           FLAT
    Nuclear Scheme         =       TREUTLER

    BS radius alpha        =              1
    Pruning alpha          =              1
    Radial Points          =             75
    Spherical Points       =            302
    Total Points           =         113250
    Total Blocks           =            916
    Max Points             =            256
    Max Functions          =             84


  -Total Gradient:
     Atom            X                  Y                   Z
    ------   -----------------  -----------------  -----------------
       1        0.000011826052    -0.000787282219     0.000173293251
       2        0.000011872857    -0.000787174379     0.000173226894
       3        0.000011808995    -0.000787200828     0.000173278960
       4        0.000011820635    -0.000787182842     0.000173260269
       5        0.000011813736    -0.000787171696     0.000173247965


*** tstop() called on thinkpad at Sat Jul 10 15:20:47 2021
Module time:
	user time   =       4.31 seconds =       0.07 minutes
	system time =       0.03 seconds =       0.00 minutes
	total time  =          2 seconds =       0.03 minutes
Total time:
	user time   =     183.89 seconds =       3.06 minutes
	system time =       1.06 seconds =       0.02 minutes
	total time  =         68 seconds =       1.13 minutes

			-----------------------------------------
			 OPTKING 2.0: for geometry optimizations 
			  - R.A. King,  Bethel University        
			-----------------------------------------

	Previous internal coordinate definitions found.
	---Fragment 1 Geometry and Gradient---
	 CR         -0.0019186281        0.1276885344       -0.0281039968
	 O           1.9123145303        1.5214887902       -1.7351084352
	 O          -1.9660372299        2.0538007608        0.9481957381
	 F          -1.4768450816       -2.1590590290       -1.7062660692
	 F           1.5273200874       -1.2001000370        2.4456091131
	             0.0000118261       -0.0007872822        0.0001732933
	             0.0000118729       -0.0007871744        0.0001732269
	             0.0000118090       -0.0007872008        0.0001732790
	             0.0000118206       -0.0007871828        0.0001732603
	             0.0000118137       -0.0007871717        0.0001732480

	---Fragment 1 Intrafragment Coordinates---
	 - Coordinate -           - BOHR/RAD -       - ANG/DEG -
	 R(1,2)           =         2.919046	       1.544693
	 R(1,3)           =         2.919046	       1.544693
	 R(1,4)           =         3.197006	       1.691783
	 R(1,5)           =         3.197006	       1.691783
	 B(2,1,3)         =         1.898390	     108.769754
	 B(2,1,4)         =         1.914643	     109.700969
	 B(2,1,5)         =         1.914643	     109.700966
	 B(3,1,4)         =         1.914643	     109.700961
	 B(3,1,5)         =         1.914643	     109.700958
	 B(4,1,5)         =         1.906852	     109.254573

	Current energy   :     -1394.1336233395

	Energy change for the previous step:
		Projected    :        -0.0000000000
		Actual       :         0.0000000190

	Performing BFGS update.
	Previous computed or guess Hessian on step 1.
	Denominators (dg)(dq) or (dq)(dq) are very small.
	 Skipping Hessian update for step 9.
	Denominators (dg)(dq) or (dq)(dq) are very small.
	 Skipping Hessian update for step 8.
	Steps to be used in Hessian update: 7 6
	Taking RFO optimization step.
	Going to follow RFO solution 1.
	Using RFO vector 1.
	Norm of target step-size    0.00000
	Projected energy change by RFO approximation:        -0.0000000000

	Back-transformation to cartesian coordinates...
	Successfully converged to displaced geometry.

	--- Internal Coordinate Step in ANG or DEG, aJ/ANG or AJ/DEG ---
	 ---------------------------------------------------------------------------
	   Coordinate                Previous        Force       Change         New 
	   ----------                --------       ------       ------       ------
	    1 R(1,2)          =      1.544693    -0.000001    -0.000000     1.544693
	    2 R(1,3)          =      1.544693    -0.000000    -0.000000     1.544693
	    3 R(1,4)          =      1.691783     0.000000     0.000000     1.691783
	    4 R(1,5)          =      1.691783     0.000000     0.000000     1.691783
	    5 B(2,1,3)        =    108.769754    -0.000000    -0.000003   108.769751
	    6 B(2,1,4)        =    109.700969    -0.000000     0.000001   109.700970
	    7 B(2,1,5)        =    109.700966     0.000000     0.000003   109.700969
	    8 B(3,1,4)        =    109.700961     0.000000     0.000008   109.700970
	    9 B(3,1,5)        =    109.700958     0.000000     0.000011   109.700968
	   10 B(4,1,5)        =    109.254573    -0.000000    -0.000020   109.254553
	 ---------------------------------------------------------------------------
	Successfully symmetrized geometry.

  ==> Convergence Check <==

  Measures of convergence in internal coordinates in au.
  Criteria marked as inactive (o), active & met (*), and active & unmet ( ).
  ---------------------------------------------------------------------------------------------
   Step     Total Energy     Delta E     MAX Force     RMS Force      MAX Disp      RMS Disp   
  ---------------------------------------------------------------------------------------------
    Convergence Criteria             o    2.00e-06 *    1.00e-06 *    6.00e-06 *    4.00e-06 *
  ---------------------------------------------------------------------------------------------
     10   -1394.13362334    1.90e-08 o    6.27e-08 *    3.06e-08 *    3.46e-07 *    1.40e-07 *  ~
  ---------------------------------------------------------------------------------------------


  **** Optimization is complete! (in 10 steps) ****

  ==> Optimization Summary <==

  Measures of convergence in internal coordinates in au.
  --------------------------------------------------------------------------------------------------------------- ~
   Step         Total Energy             Delta E       MAX Force       RMS Force        MAX Disp        RMS Disp  ~
  --------------------------------------------------------------------------------------------------------------- ~
      1   -1394.132495860760  -1394.132495860760      0.01452088      0.00834290      0.05761443      0.02116783  ~
      2   -1394.133309808425     -0.000813947665      0.01061812      0.00509645      0.01160926      0.00608553  ~
      3   -1394.133491924695     -0.000182116270      0.00680717      0.00331254      0.01661451      0.00865735  ~
      4   -1394.133599380240     -0.000107455545      0.00141739      0.00080109      0.00275685      0.00134764  ~
      5   -1394.133611575136     -0.000012194897      0.00104298      0.00051251      0.00444424      0.00165999  ~
      6   -1394.133623661218     -0.000012086081      0.00052624      0.00023817      0.00052727      0.00023905  ~
      7   -1394.133624633343     -0.000000972125      0.00032948      0.00015333      0.00033849      0.00018306  ~
      8   -1394.133623959994      0.000000673349      0.00011267      0.00005328      0.00027451      0.00013030  ~
      9   -1394.133623358478      0.000000601515      0.00000136      0.00000062      0.00001095      0.00000410  ~
     10   -1394.133623339460      0.000000019019      0.00000006      0.00000003      0.00000035      0.00000014  ~
  --------------------------------------------------------------------------------------------------------------- ~

	Writing optimization data to binary file.
	Final energy is  -1394.1336233394595
	Final (previous) structure:
	Cartesian Geometry (in Angstrom)
	   CR    -0.0010152943   0.0675698622  -0.0148719946
	    O     1.0119532651   0.8051371909  -0.9181798383
	    O    -1.0403820933   1.0868245536   0.5017635739
	    F    -0.7815127578  -1.1425248301  -0.9029171156
	    F     0.8082229805  -0.6350655876   1.2941606038
	Saving final (previous) structure.
			--------------------------
			 OPTKING Finished Execution 
			--------------------------

    Final optimized geometry and variables:
    Molecular point group: c1
    Full point group: C1

    Geometry (in Angstrom), charge = 0, multiplicity = 1:

    CR          -0.001015294283     0.067569862448    -0.014871994644
    O            1.011953269063     0.805137194084    -0.918179841955
    O           -1.040382097367     1.086824557847     0.501763575852
    F           -0.781512760893    -1.142524834641    -0.902917119139
    F            0.808222983650    -0.635065590082     1.294160608884

	Removing binary optimization data file.
	Cleaning optimization helper files.

    Psi4 stopped on: Saturday, 10 July 2021 03:20PM
    Psi4 wall time for execution: 0:01:08.45

*** Psi4 exiting successfully. Buy a developer a beer!
