
    -----------------------------------------------------------------------
          Psi4: An Open-Source Ab Initio Electronic Structure Package
                               Psi4 1.3.2 release

                         Git: Rev {} zzzzzzz 


    R. M. Parrish, L. A. Burns, D. G. A. Smith, A. C. Simmonett,
    A. E. DePrince III, E. G. Hohenstein, U. Bozkaya, A. Yu. Sokolov,
    R. Di Remigio, R. M. Richard, J. F. Gonthier, A. M. James,
    H. R. McAlexander, A. Kumar, M. Saitow, X. Wang, B. P. Pritchard,
    P. Verma, H. F. Schaefer III, K. Patkowski, R. A. King, E. F. Valeev,
    F. A. Evangelista, J. M. Turney, T. D. Crawford, and C. D. Sherrill,
    J. Chem. Theory Comput. 13(7) pp 3185--3197 (2017).
    (doi: 10.1021/acs.jctc.7b00174)


                         Additional Contributions by
    P. Kraus, H. Kruse, M. H. Lechner, M. C. Schieber, R. A. Shaw,
    A. Alenaizan, R. Galvelis, Z. L. Glick, S. Lehtola, and J. P. Misiewicz

    -----------------------------------------------------------------------


    Psi4 started on: Saturday, 10 July 2021 03:18PM

    Process ID: 1878292
    Host:       thinkpad
    PSIDATADIR: /usr/share/psi4
    Memory:     500.0 MiB
    Threads:    4
    
  ==> Input File <==

--------------------------------------------------------------------------
memory 8 gb

molecule {
symmetry c1
Cr        0.48028725377749    0.32716919378518    0.12128381663197
O         1.51332165941332    1.03448648135578   -0.78955553051410
O        -0.57831537187616    1.32157128739802    0.65757817076212
F        -0.29602430869141   -0.85637252313759   -0.76598418135575
F         1.28459076737678   -0.35182443940140    1.41848772447575
}

set basis def2-SV(P)
set geom_maxiter 250

# Use a (75,302) quadrature grid
set dft_radial_points 75
set dft_spherical_points 302

# Very tight geometry optimization
set g_convergence gau_verytight
# Increase allowed number of geometry optimization steps
set geom_maxiter 250

# Use the Hueckel type guess
set guess huckel

my_dft = {
    "name": "my r2scan",
    "x_functionals": {"mgga_x_r2scan": {}},
    "c_functionals": {"mgga_c_r2scan": {}}
}
optimize('scf', dft_functional=my_dft)
--------------------------------------------------------------------------

  Memory set to   7.451 GiB by Python driver.
gradient() will perform analytic gradient computation.

*** tstart() called on thinkpad
*** at Sat Jul 10 15:18:19 2021

   => Loading Basis Set <=

    Name: DEF2-SV(P)
    Role: ORBITAL
    Keyword: BASIS
    atoms 1   entry CR         line   606 file /usr/share/psi4/basis/def2-sv_p_.gbs 
    atoms 2-3 entry O          line   128 file /usr/share/psi4/basis/def2-sv_p_.gbs 
    atoms 4-5 entry F          line   148 file /usr/share/psi4/basis/def2-sv_p_.gbs 


         ---------------------------------------------------------
                                   SCF
               by Justin Turney, Rob Parrish, Andy Simmonett
                          and Daniel G. A. Smith
                              RKS Reference
                        4 Threads,   7629 MiB Core
         ---------------------------------------------------------

  ==> Geometry <==

    Molecular point group: c1
    Full point group: C1

    Geometry (in Angstrom), charge = 0, multiplicity = 1:

       Center              X                  Y                   Z               Mass       
    ------------   -----------------  -----------------  -----------------  -----------------
         CR          -0.001007494106     0.066977222278    -0.014740872913    51.940506230000
         O            1.032026911530     0.774294509849    -0.925580220059    15.994914619570
         O           -1.059610119760     1.061379315891     0.521553481217    15.994914619570
         F           -0.777319056575    -1.116564494645    -0.902008870901    18.998403162730
         F            0.803296019493    -0.612016410908     1.282463034931    18.998403162730

  Running in c1 symmetry.

  Rotational constants: A =      0.15233  B =      0.13609  C =      0.12992 [cm^-1]
  Rotational constants: A =   4566.71939  B =   4079.72696  C =   3895.02954 [MHz]
  Nuclear repulsion =  355.181605515257786

  Charge       = 0
  Multiplicity = 1
  Electrons    = 58
  Nalpha       = 29
  Nbeta        = 29

  ==> Algorithm <==

  SCF Algorithm Type is DF.
  DIIS enabled.
  MOM disabled.
  Fractional occupation disabled.
  Guess Type is HUCKEL.
  Energy threshold   = 1.00e-08
  Density threshold  = 1.00e-08
  Integral threshold = 0.00e+00

  ==> Primary Basis <==

  Basis Set: DEF2-SV(P)
    Blend: DEF2-SV(P)
    Number of shells: 34
    Number of basis function: 80
    Number of Cartesian functions: 86
    Spherical Harmonics?: true
    Max angular momentum: 2

  ==> DFT Potential <==

   => Composite Functional: MY R2SCAN <= 

    Re-regularized SCAN exchange by Furness et al
    Re-regularized SCAN correlation by Furness et al
    J. W. Furness, A. D. Kaplan, J. Ning, J. P. Perdew, and J. Sun, J. Phys. Chem. Lett. 11, 8208 (2020)
    J. W. Furness, A. D. Kaplan, J. Ning, J. P. Perdew, and J. Sun, J. Phys. Chem. Lett. 11, 9248 (2020)

    Deriv               =              1
    GGA                 =           TRUE
    Meta                =           TRUE

    Exchange Hybrid     =          FALSE
    MP2 Hybrid          =          FALSE

   => Exchange Functionals <=

    1.0000   XC_mgga_x_r2scan

   => Correlation Functionals <=

    1.0000   XC_mgga_c_r2scan

   => Molecular Quadrature <=

    Radial Scheme          =       TREUTLER
    Pruning Scheme         =           FLAT
    Nuclear Scheme         =       TREUTLER

    BS radius alpha        =              1
    Pruning alpha          =              1
    Radial Points          =             75
    Spherical Points       =            302
    Total Points           =         113250
    Total Blocks           =            920
    Max Points             =            256
    Max Functions          =             77

   => Loading Basis Set <=

    Name: (DEF2-SV(P) AUX)
    Role: JKFIT
    Keyword: DF_BASIS_SCF
    atoms 1   entry CR         line  1731 file /usr/share/psi4/basis/def2-sv_p_-jkfit.gbs 
    atoms 2-3 entry O          line   323 file /usr/share/psi4/basis/def2-sv_p_-jkfit.gbs 
    atoms 4-5 entry F          line   383 file /usr/share/psi4/basis/def2-sv_p_-jkfit.gbs 

  ==> Pre-Iterations <==

   -------------------------------------------------------
    Irrep   Nso     Nmo     Nalpha   Nbeta   Ndocc  Nsocc
   -------------------------------------------------------
     A         80      80       0       0       0       0
   -------------------------------------------------------
    Total      80      80      29      29      29       0
   -------------------------------------------------------

  ==> Integral Setup <==

  DFHelper Memory: AOs need 0.031 GiB; user supplied 5.110 GiB. Using in-core AOs.

  ==> MemDFJK: Density-Fitted J/K Matrices <==

    J tasked:                   Yes
    K tasked:                    No
    wK tasked:                   No
    OpenMP threads:               4
    Memory [MiB]:              5233
    Algorithm:                 Core
    Schwarz Cutoff:           1E-12
    Mask sparsity (%):       1.0938
    Fitting Condition:        1E-10

   => Auxiliary Basis Set <=

  Basis Set: (DEF2-SV(P) AUX)
    Blend: DEF2-SV_P_-JKFIT
    Number of shells: 158
    Number of basis function: 572
    Number of Cartesian functions: 749
    Spherical Harmonics?: true
    Max angular momentum: 6

  Cached 100.0% of DFT collocation blocks in 0.477 [GiB].

  Minimum eigenvalue in the overlap matrix is 1.8951953410E-02.
  Using Symmetric Orthogonalization.

  SCF Guess: Huckel guess via on-the-fly atomic UHF (doi:10.1021/acs.jctc.8b01089).

  ==> Iterations <==

                           Total Energy        Delta E     RMS |[F,P]|

   @DF-RKS iter   1: -1393.18275655037587   -1.39318e+03   2.47237e-02 DIIS
   @DF-RKS iter   2: -1378.45405893593374    1.47287e+01   6.00215e-02 DIIS
   @DF-RKS iter   3: -1391.68878277070257   -1.32347e+01   2.77863e-02 DIIS
   @DF-RKS iter   4: -1394.02211771671637   -2.33333e+00   6.21219e-03 DIIS
   @DF-RKS iter   5: -1393.36593026807668    6.56187e-01   1.76071e-02 DIIS
   @DF-RKS iter   6: -1394.07351594629108   -7.07586e-01   4.65789e-03 DIIS
   @DF-RKS iter   7: -1394.00089218447920    7.26238e-02   7.31248e-03 DIIS
   @DF-RKS iter   8: -1394.02519533502391   -2.43032e-02   6.31247e-03 DIIS
   @DF-RKS iter   9: -1394.11124533992870   -8.60500e-02   1.67780e-03 DIIS
   @DF-RKS iter  10: -1394.11629605649250   -5.05072e-03   7.57946e-04 DIIS
   @DF-RKS iter  11: -1394.11726086677982   -9.64810e-04   3.70921e-04 DIIS
   @DF-RKS iter  12: -1394.11754596405967   -2.85097e-04   7.44810e-05 DIIS
   @DF-RKS iter  13: -1394.11755817342737   -1.22094e-05   1.93607e-05 DIIS
   @DF-RKS iter  14: -1394.11755887117920   -6.97752e-07   6.29611e-06 DIIS
   @DF-RKS iter  15: -1394.11755894888802   -7.77088e-08   1.17635e-06 DIIS
   @DF-RKS iter  16: -1394.11755895187230   -2.98428e-09   1.03797e-07 DIIS
   @DF-RKS iter  17: -1394.11755895189640   -2.41016e-11   2.49506e-08 DIIS
   @DF-RKS iter  18: -1394.11755895189731   -9.09495e-13   2.46088e-09 DIIS
  Energy and wave function converged.


  ==> Post-Iterations <==

    Orbital Energies [Eh]
    ---------------------

    Doubly Occupied:                                                      

       1A   -215.546160     2A    -24.841427     3A    -24.546284  
       4A    -24.546283     5A    -21.122431     6A    -21.122312  
       7A    -21.118440     8A    -19.056984     9A    -19.056974  
      10A     -3.041782    11A     -1.993242    12A     -1.991761  
      13A     -1.987561    14A     -1.148502    15A     -1.143225  
      16A     -0.943940    17A     -0.931607    18A     -0.501026  
      19A     -0.494611    20A     -0.479111    21A     -0.477517  
      22A     -0.476620    23A     -0.435251    24A     -0.427589  
      25A     -0.412151    26A     -0.391204    27A     -0.378384  
      28A     -0.376035    29A     -0.337481  

    Virtual:                                                              

      30A     -0.221881    31A     -0.204372    32A     -0.173646  
      33A     -0.133681    34A     -0.116195    35A      0.018051  
      36A      0.168754    37A      0.219435    38A      0.223319  
      39A      0.225090    40A      0.569434    41A      0.570592  
      42A      0.584268    43A      0.632740    44A      0.633558  
      45A      0.927671    46A      0.928826    47A      0.975013  
      48A      0.991737    49A      1.002710    50A      1.025840  
      51A      1.123686    52A      1.153141    53A      1.197358  
      54A      1.229584    55A      1.242983    56A      1.250046  
      57A      1.352151    58A      1.433621    59A      1.658036  
      60A      1.670861    61A      2.510851    62A      2.520280  
      63A      2.544967    64A      2.559872    65A      2.564739  
      66A      2.599612    67A      2.623866    68A      2.655636  
      69A      2.655872    70A      2.764230    71A      2.986393  
      72A      2.989207    73A      2.999949    74A      3.002903  
      75A      3.008488    76A      3.046809    77A      3.068149  
      78A      3.102077    79A      3.238828    80A      3.257089  

    Final Occupation by Irrep:
              A 
    DOCC [    29 ]

  @DF-RKS Final Energy: -1394.11755895189731

   => Energetics <=

    Nuclear Repulsion Energy =            355.1816055152577860
    One-Electron Energy =               -2625.2198947520710135
    Two-Electron Energy =                 962.2132954667863487
    DFT Exchange-Correlation Energy =     -86.2925651818702306
    Empirical Dispersion Energy =           0.0000000000000000
    VV10 Nonlocal Energy =                  0.0000000000000000
    Total Energy =                      -1394.1175589518973084

Computation Completed


Properties will be evaluated at   0.000000,   0.000000,   0.000000 [a0]

Properties computed using the SCF density matrix

  Nuclear Dipole Moment: [e a0]
     X:    -0.0209      Y:     1.3901      Z:    -0.3060

  Electronic Dipole Moment: [e a0]
     X:     0.0227      Y:    -1.5076      Z:     0.3318

  Dipole Moment: [e a0]
     X:     0.0018      Y:    -0.1175      Z:     0.0259     Total:     0.1203

  Dipole Moment: [D]
     X:     0.0045      Y:    -0.2987      Z:     0.0657     Total:     0.3059


*** tstop() called on thinkpad at Sat Jul 10 15:18:27 2021
Module time:
	user time   =      21.29 seconds =       0.35 minutes
	system time =       0.26 seconds =       0.00 minutes
	total time  =          8 seconds =       0.13 minutes
Total time:
	user time   =      21.29 seconds =       0.35 minutes
	system time =       0.26 seconds =       0.00 minutes
	total time  =          8 seconds =       0.13 minutes

*** tstart() called on thinkpad
*** at Sat Jul 10 15:18:27 2021


         ------------------------------------------------------------
                                   SCF GRAD                          
                          Rob Parrish, Justin Turney,                
                       Andy Simmonett, and Alex Sokolov              
         ------------------------------------------------------------

  ==> Geometry <==

    Molecular point group: c1
    Full point group: C1

    Geometry (in Angstrom), charge = 0, multiplicity = 1:

       Center              X                  Y                   Z               Mass       
    ------------   -----------------  -----------------  -----------------  -----------------
         CR          -0.001007494106     0.066977222278    -0.014740872913    51.940506230000
         O            1.032026911530     0.774294509849    -0.925580220059    15.994914619570
         O           -1.059610119760     1.061379315891     0.521553481217    15.994914619570
         F           -0.777319056575    -1.116564494645    -0.902008870901    18.998403162730
         F            0.803296019493    -0.612016410908     1.282463034931    18.998403162730

  Nuclear repulsion =  355.181605515257786

  ==> Basis Set <==

  Basis Set: DEF2-SV(P)
    Blend: DEF2-SV(P)
    Number of shells: 34
    Number of basis function: 80
    Number of Cartesian functions: 86
    Spherical Harmonics?: true
    Max angular momentum: 2

  ==> DFJKGrad: Density-Fitted SCF Gradients <==

    Gradient:                    1
    J tasked:                  Yes
    K tasked:                   No
    wK tasked:                  No
    OpenMP threads:              4
    Integrals threads:           4
    Memory [MiB]:             5722
    Schwarz Cutoff:          0E+00
    Fitting Condition:       1E-10

   => Auxiliary Basis Set <=

  Basis Set: (DEF2-SV(P) AUX)
    Blend: DEF2-SV_P_-JKFIT
    Number of shells: 158
    Number of basis function: 572
    Number of Cartesian functions: 749
    Spherical Harmonics?: true
    Max angular momentum: 6

  ==> DFT Potential <==

   => Composite Functional: MY R2SCAN <= 

    Re-regularized SCAN exchange by Furness et al
    Re-regularized SCAN correlation by Furness et al
    J. W. Furness, A. D. Kaplan, J. Ning, J. P. Perdew, and J. Sun, J. Phys. Chem. Lett. 11, 8208 (2020)
    J. W. Furness, A. D. Kaplan, J. Ning, J. P. Perdew, and J. Sun, J. Phys. Chem. Lett. 11, 9248 (2020)

    Deriv               =              1
    GGA                 =           TRUE
    Meta                =           TRUE

    Exchange Hybrid     =          FALSE
    MP2 Hybrid          =          FALSE

   => Exchange Functionals <=

    1.0000   XC_mgga_x_r2scan

   => Correlation Functionals <=

    1.0000   XC_mgga_c_r2scan

   => Molecular Quadrature <=

    Radial Scheme          =       TREUTLER
    Pruning Scheme         =           FLAT
    Nuclear Scheme         =       TREUTLER

    BS radius alpha        =              1
    Pruning alpha          =              1
    Radial Points          =             75
    Spherical Points       =            302
    Total Points           =         113250
    Total Blocks           =            920
    Max Points             =            256
    Max Functions          =             77


  -Total Gradient:
     Atom            X                  Y                   Z
    ------   -----------------  -----------------  -----------------
       1        0.000124110806    -0.008281992145     0.001823113851
       2       -0.002137989833    -0.009566052657     0.003756536713
       3        0.002434995366    -0.010193191922     0.000592454503
       4        0.009453891671     0.015309529810     0.010626872319
       5       -0.009821231786     0.009156810904    -0.016012194352


*** tstop() called on thinkpad at Sat Jul 10 15:18:29 2021
Module time:
	user time   =       3.89 seconds =       0.06 minutes
	system time =       0.01 seconds =       0.00 minutes
	total time  =          2 seconds =       0.03 minutes
Total time:
	user time   =      25.18 seconds =       0.42 minutes
	system time =       0.27 seconds =       0.00 minutes
	total time  =         10 seconds =       0.17 minutes

			-----------------------------------------
			 OPTKING 2.0: for geometry optimizations 
			  - R.A. King,  Bethel University        
			-----------------------------------------

	Internal coordinates to be generated automatically.
	Detected frag 1 with atoms:  1 2 3 4 5
	---Fragment 1 Bond Connectivity---
	 1 : 2 3 4 5
	 2 : 1
	 3 : 1
	 4 : 1
	 5 : 1

	---Fragment 1 Geometry and Gradient---
	 CR         -0.0019038879        0.1265686067       -0.0278562127
	 O           1.9502482169        1.4632045641       -1.7490931231
	 O          -2.0023729261        2.0057162223        0.9855932393
	 F          -1.4689201290       -2.1100010963       -1.7045497287
	 F           1.5180094745       -1.1565434009        2.4235039020
	             0.0001241108       -0.0082819921        0.0018231139
	            -0.0021379898       -0.0095660527        0.0037565367
	             0.0024349954       -0.0101931919        0.0005924545
	             0.0094538917        0.0153095298        0.0106268723
	            -0.0098212318        0.0091568109       -0.0160121944

	Previous optimization step data not found.  Starting new optimization.

	---Fragment 1 Intrafragment Coordinates---
	 - Coordinate -           - BOHR/RAD -       - ANG/DEG -
	 R(1,2)           =         2.925773	       1.548253
	 R(1,3)           =         2.925774	       1.548253
	 R(1,4)           =         3.156847	       1.670531
	 R(1,5)           =         3.156846	       1.670531
	 B(2,1,3)         =         1.946113	     111.504060
	 B(2,1,4)         =         1.897868	     108.739823
	 B(2,1,5)         =         1.897867	     108.739770
	 B(3,1,4)         =         1.897872	     108.740061
	 B(3,1,5)         =         1.897872	     108.740055
	 B(4,1,5)         =         1.926457	     110.377858

	Current energy   :     -1394.1175589519

	Generating empirical Hessian (Schlegel '84) for each fragment.
	Taking RFO optimization step.
	Going to follow RFO solution 1.
	Using RFO vector 1.
	Norm of target step-size    0.06826
	Projected energy change by RFO approximation:        -0.0016198968

	Back-transformation to cartesian coordinates...
	Successfully converged to displaced geometry.

	--- Internal Coordinate Step in ANG or DEG, aJ/ANG or AJ/DEG ---
	 ---------------------------------------------------------------------------
	   Coordinate                Previous        Force       Change         New 
	   ----------                --------       ------       ------       ------
	    1 R(1,2)          =      1.548253     0.062571     0.001462     1.549714
	    2 R(1,3)          =      1.548253     0.062569     0.001462     1.549715
	    3 R(1,4)          =      1.670531     0.175502     0.008381     1.678913
	    4 R(1,5)          =      1.670531     0.175503     0.008381     1.678912
	    5 B(2,1,3)        =    111.504060    -0.001094    -3.263694   108.240366
	    6 B(2,1,4)        =    108.739823     0.000284     0.839342   109.579165
	    7 B(2,1,5)        =    108.739770     0.000284     0.839393   109.579163
	    8 B(3,1,4)        =    108.740061     0.000283     0.839136   109.579196
	    9 B(3,1,5)        =    108.740055     0.000283     0.839149   109.579203
	   10 B(4,1,5)        =    110.377858    -0.000045    -0.125900   110.251958
	 ---------------------------------------------------------------------------
	Successfully symmetrized geometry.

  ==> Convergence Check <==

  Measures of convergence in internal coordinates in au.
  Criteria marked as inactive (o), active & met (*), and active & unmet ( ).
  --------------------------------------------------------------------------------------------- ~
   Step     Total Energy     Delta E     MAX Force     RMS Force      MAX Disp      RMS Disp    ~
  --------------------------------------------------------------------------------------------- ~
    Convergence Criteria             o    2.00e-06 *    1.00e-06 *    6.00e-06 *    4.00e-06 *  ~
  --------------------------------------------------------------------------------------------- ~
      1   -1394.11755895   -1.39e+03 o    2.13e-02      1.13e-02      5.70e-02      2.15e-02    ~
  ---------------------------------------------------------------------------------------------

	Writing optimization data to binary file.
	Structure for next step:
	Cartesian Geometry (in Angstrom)
	   CR    -0.0008262943   0.0550049328  -0.0121064964
	    O     1.0119323062   0.8011129212  -0.9172350915
	    O    -1.0402393572   1.0827784019   0.5025948251
	    F    -0.7804054222  -1.1357587727  -0.9026600345
	    F     0.8069250280  -0.6290673415   1.2910933498
			--------------------------
			 OPTKING Finished Execution 
			--------------------------

    Structure for next step:
    Molecular point group: c1
    Full point group: C1

    Geometry (in Angstrom), charge = 0, multiplicity = 1:

    CR          -0.000893081363     0.059427353688    -0.013079696605
    O            1.011865523088     0.805535345036    -0.918208295302
    O           -1.040306148311     1.087200826819     0.501621626859
    F           -0.780472212333    -1.131336356520    -0.903633238202
    F            0.806858244147    -0.624644923322     1.290120154682

gradient() will perform analytic gradient computation.

*** tstart() called on thinkpad
*** at Sat Jul 10 15:18:29 2021

   => Loading Basis Set <=

    Name: DEF2-SV(P)
    Role: ORBITAL
    Keyword: BASIS
    atoms 1   entry CR         line   606 file /usr/share/psi4/basis/def2-sv_p_.gbs 
    atoms 2-3 entry O          line   128 file /usr/share/psi4/basis/def2-sv_p_.gbs 
    atoms 4-5 entry F          line   148 file /usr/share/psi4/basis/def2-sv_p_.gbs 


         ---------------------------------------------------------
                                   SCF
               by Justin Turney, Rob Parrish, Andy Simmonett
                          and Daniel G. A. Smith
                              RKS Reference
                        4 Threads,   7629 MiB Core
         ---------------------------------------------------------

  ==> Geometry <==

    Molecular point group: c1
    Full point group: C1

    Geometry (in Angstrom), charge = 0, multiplicity = 1:

       Center              X                  Y                   Z               Mass       
    ------------   -----------------  -----------------  -----------------  -----------------
         CR          -0.000893081363     0.059427353688    -0.013079696605    51.940506230000
         O            1.011865523088     0.805535345036    -0.918208295302    15.994914619570
         O           -1.040306148311     1.087200826819     0.501621626859    15.994914619570
         F           -0.780472212333    -1.131336356520    -0.903633238202    18.998403162730
         F            0.806858244147    -0.624644923322     1.290120154682    18.998403162730

  Running in c1 symmetry.

  Rotational constants: A =      0.15134  B =      0.13758  C =      0.12671 [cm^-1]
  Rotational constants: A =   4537.00180  B =   4124.67353  C =   3798.64716 [MHz]
  Nuclear repulsion =  354.082256785442269

  Charge       = 0
  Multiplicity = 1
  Electrons    = 58
  Nalpha       = 29
  Nbeta        = 29

  ==> Algorithm <==

  SCF Algorithm Type is DF.
  DIIS enabled.
  MOM disabled.
  Fractional occupation disabled.
  Guess Type is READ.
  Energy threshold   = 1.00e-08
  Density threshold  = 1.00e-08
  Integral threshold = 0.00e+00

  ==> Primary Basis <==

  Basis Set: DEF2-SV(P)
    Blend: DEF2-SV(P)
    Number of shells: 34
    Number of basis function: 80
    Number of Cartesian functions: 86
    Spherical Harmonics?: true
    Max angular momentum: 2

  ==> DFT Potential <==

   => Composite Functional: MY R2SCAN <= 

    Re-regularized SCAN exchange by Furness et al
    Re-regularized SCAN correlation by Furness et al
    J. W. Furness, A. D. Kaplan, J. Ning, J. P. Perdew, and J. Sun, J. Phys. Chem. Lett. 11, 8208 (2020)
    J. W. Furness, A. D. Kaplan, J. Ning, J. P. Perdew, and J. Sun, J. Phys. Chem. Lett. 11, 9248 (2020)

    Deriv               =              1
    GGA                 =           TRUE
    Meta                =           TRUE

    Exchange Hybrid     =          FALSE
    MP2 Hybrid          =          FALSE

   => Exchange Functionals <=

    1.0000   XC_mgga_x_r2scan

   => Correlation Functionals <=

    1.0000   XC_mgga_c_r2scan

   => Molecular Quadrature <=

    Radial Scheme          =       TREUTLER
    Pruning Scheme         =           FLAT
    Nuclear Scheme         =       TREUTLER

    BS radius alpha        =              1
    Pruning alpha          =              1
    Radial Points          =             75
    Spherical Points       =            302
    Total Points           =         113250
    Total Blocks           =            923
    Max Points             =            256
    Max Functions          =             77

   => Loading Basis Set <=

    Name: (DEF2-SV(P) AUX)
    Role: JKFIT
    Keyword: DF_BASIS_SCF
    atoms 1   entry CR         line  1731 file /usr/share/psi4/basis/def2-sv_p_-jkfit.gbs 
    atoms 2-3 entry O          line   323 file /usr/share/psi4/basis/def2-sv_p_-jkfit.gbs 
    atoms 4-5 entry F          line   383 file /usr/share/psi4/basis/def2-sv_p_-jkfit.gbs 

   => Loading Basis Set <=

    Name: DEF2-SV(P)
    Role: ORBITAL
    Keyword: BASIS
    atoms 1   entry CR         line   606 file /usr/share/psi4/basis/def2-sv_p_.gbs 
    atoms 2-3 entry O          line   128 file /usr/share/psi4/basis/def2-sv_p_.gbs 
    atoms 4-5 entry F          line   148 file /usr/share/psi4/basis/def2-sv_p_.gbs 

  Reading orbitals from file 180, no projection.

  ==> Pre-Iterations <==

   -------------------------------------------------------
    Irrep   Nso     Nmo     Nalpha   Nbeta   Ndocc  Nsocc
   -------------------------------------------------------
     A         80      80       0       0       0       0
   -------------------------------------------------------
    Total      80      80      29      29      29       0
   -------------------------------------------------------

  ==> Integral Setup <==

  DFHelper Memory: AOs need 0.031 GiB; user supplied 5.111 GiB. Using in-core AOs.

  ==> MemDFJK: Density-Fitted J/K Matrices <==

    J tasked:                   Yes
    K tasked:                    No
    wK tasked:                   No
    OpenMP threads:               4
    Memory [MiB]:              5233
    Algorithm:                 Core
    Schwarz Cutoff:           1E-12
    Mask sparsity (%):       1.2188
    Fitting Condition:        1E-10

   => Auxiliary Basis Set <=

  Basis Set: (DEF2-SV(P) AUX)
    Blend: DEF2-SV_P_-JKFIT
    Number of shells: 158
    Number of basis function: 572
    Number of Cartesian functions: 749
    Spherical Harmonics?: true
    Max angular momentum: 6

  Cached 100.0% of DFT collocation blocks in 0.477 [GiB].

  Minimum eigenvalue in the overlap matrix is 1.8439936261E-02.
  Using Symmetric Orthogonalization.

  SCF Guess: Orbitals guess was supplied from a previous computation.

  ==> Iterations <==

                           Total Energy        Delta E     RMS |[F,P]|

   @DF-RKS iter   0: -1394.11552929505274   -1.39412e+03   1.13513e-03 
   @DF-RKS iter   1: -1394.11846429394313   -2.93500e-03   2.89519e-04 DIIS
   @DF-RKS iter   2: -1394.11129010626905    7.17419e-03   1.80766e-03 DIIS
   @DF-RKS iter   3: -1394.11820943808607   -6.91933e-03   4.68411e-04 DIIS
   @DF-RKS iter   4: -1394.11868903771074   -4.79600e-04   4.54659e-05 DIIS
   @DF-RKS iter   5: -1394.11869318231766   -4.14461e-06   4.96665e-06 DIIS
   @DF-RKS iter   6: -1394.11869323079145   -4.84738e-08   1.83632e-06 DIIS
   @DF-RKS iter   7: -1394.11869323226824   -1.47679e-09   1.54680e-06 DIIS
   @DF-RKS iter   8: -1394.11869323830888   -6.04064e-09   3.99406e-07 DIIS
   @DF-RKS iter   9: -1394.11869323868905   -3.80169e-10   6.71844e-08 DIIS
   @DF-RKS iter  10: -1394.11869323869837   -9.32232e-12   3.36536e-09 DIIS
  Energy and wave function converged.


  ==> Post-Iterations <==

    Orbital Energies [Eh]
    ---------------------

    Doubly Occupied:                                                      

       1A   -215.548471     2A    -24.843082     3A    -24.544798  
       4A    -24.544795     5A    -21.124053     6A    -21.123947  
       7A    -21.120347     8A    -19.058530     9A    -19.058523  
      10A     -3.042348    11A     -1.993186    12A     -1.993043  
      13A     -1.987159    14A     -1.146224    15A     -1.141122  
      16A     -0.943994    17A     -0.933627    18A     -0.499427  
      19A     -0.492027    20A     -0.477029    21A     -0.475931  
      22A     -0.475580    23A     -0.434458    24A     -0.425861  
      25A     -0.412328    26A     -0.393049    27A     -0.378257  
      28A     -0.377811    29A     -0.336858  

    Virtual:                                                              

      30A     -0.221074    31A     -0.207217    32A     -0.174142  
      33A     -0.140786    34A     -0.115089    35A      0.017212  
      36A      0.165964    37A      0.220590    38A      0.222251  
      39A      0.223982    40A      0.568151    41A      0.572140  
      42A      0.590507    43A      0.625410    44A      0.636344  
      45A      0.921293    46A      0.930475    47A      0.974971  
      48A      0.996425    49A      0.999902    50A      1.031212  
      51A      1.122729    52A      1.153457    53A      1.199341  
      54A      1.224985    55A      1.236904    56A      1.242766  
      57A      1.355048    58A      1.429993    59A      1.659205  
      60A      1.674285    61A      2.511233    62A      2.518891  
      63A      2.540583    64A      2.554713    65A      2.563675  
      66A      2.600430    67A      2.625801    68A      2.649678  
      69A      2.661580    70A      2.762605    71A      2.987278  
      72A      2.992734    73A      3.002291    74A      3.003904  
      75A      3.010537    76A      3.052202    77A      3.066194  
      78A      3.100527    79A      3.243542    80A      3.246667  

    Final Occupation by Irrep:
              A 
    DOCC [    29 ]

  @DF-RKS Final Energy: -1394.11869323869837

   => Energetics <=

    Nuclear Repulsion Energy =            354.0822567854422687
    One-Electron Energy =               -2623.0289560798346429
    Two-Electron Energy =                 961.1114354882938642
    DFT Exchange-Correlation Energy =     -86.2834294325996325
    Empirical Dispersion Energy =           0.0000000000000000
    VV10 Nonlocal Energy =                  0.0000000000000000
    Total Energy =                      -1394.1186932386983699

Computation Completed


Properties will be evaluated at   0.000000,   0.000000,   0.000000 [a0]

Properties computed using the SCF density matrix

  Nuclear Dipole Moment: [e a0]
     X:    -0.0217      Y:     1.4443      Z:    -0.3179

  Electronic Dipole Moment: [e a0]
     X:     0.0235      Y:    -1.5620      Z:     0.3438

  Dipole Moment: [e a0]
     X:     0.0018      Y:    -0.1176      Z:     0.0259     Total:     0.1205

  Dipole Moment: [D]
     X:     0.0045      Y:    -0.2990      Z:     0.0658     Total:     0.3062


*** tstop() called on thinkpad at Sat Jul 10 15:18:34 2021
Module time:
	user time   =      13.15 seconds =       0.22 minutes
	system time =       0.05 seconds =       0.00 minutes
	total time  =          5 seconds =       0.08 minutes
Total time:
	user time   =      38.36 seconds =       0.64 minutes
	system time =       0.32 seconds =       0.01 minutes
	total time  =         15 seconds =       0.25 minutes

*** tstart() called on thinkpad
*** at Sat Jul 10 15:18:34 2021


         ------------------------------------------------------------
                                   SCF GRAD                          
                          Rob Parrish, Justin Turney,                
                       Andy Simmonett, and Alex Sokolov              
         ------------------------------------------------------------

  ==> Geometry <==

    Molecular point group: c1
    Full point group: C1

    Geometry (in Angstrom), charge = 0, multiplicity = 1:

       Center              X                  Y                   Z               Mass       
    ------------   -----------------  -----------------  -----------------  -----------------
         CR          -0.000893081363     0.059427353688    -0.013079696605    51.940506230000
         O            1.011865523088     0.805535345036    -0.918208295302    15.994914619570
         O           -1.040306148311     1.087200826819     0.501621626859    15.994914619570
         F           -0.780472212333    -1.131336356520    -0.903633238202    18.998403162730
         F            0.806858244147    -0.624644923322     1.290120154682    18.998403162730

  Nuclear repulsion =  354.082256785442269

  ==> Basis Set <==

  Basis Set: DEF2-SV(P)
    Blend: DEF2-SV(P)
    Number of shells: 34
    Number of basis function: 80
    Number of Cartesian functions: 86
    Spherical Harmonics?: true
    Max angular momentum: 2

  ==> DFJKGrad: Density-Fitted SCF Gradients <==

    Gradient:                    1
    J tasked:                  Yes
    K tasked:                   No
    wK tasked:                  No
    OpenMP threads:              4
    Integrals threads:           4
    Memory [MiB]:             5722
    Schwarz Cutoff:          0E+00
    Fitting Condition:       1E-10

   => Auxiliary Basis Set <=

  Basis Set: (DEF2-SV(P) AUX)
    Blend: DEF2-SV_P_-JKFIT
    Number of shells: 158
    Number of basis function: 572
    Number of Cartesian functions: 749
    Spherical Harmonics?: true
    Max angular momentum: 6

  ==> DFT Potential <==

   => Composite Functional: MY R2SCAN <= 

    Re-regularized SCAN exchange by Furness et al
    Re-regularized SCAN correlation by Furness et al
    J. W. Furness, A. D. Kaplan, J. Ning, J. P. Perdew, and J. Sun, J. Phys. Chem. Lett. 11, 8208 (2020)
    J. W. Furness, A. D. Kaplan, J. Ning, J. P. Perdew, and J. Sun, J. Phys. Chem. Lett. 11, 9248 (2020)

    Deriv               =              1
    GGA                 =           TRUE
    Meta                =           TRUE

    Exchange Hybrid     =          FALSE
    MP2 Hybrid          =          FALSE

   => Exchange Functionals <=

    1.0000   XC_mgga_x_r2scan

   => Correlation Functionals <=

    1.0000   XC_mgga_c_r2scan

   => Molecular Quadrature <=

    Radial Scheme          =       TREUTLER
    Pruning Scheme         =           FLAT
    Nuclear Scheme         =       TREUTLER

    BS radius alpha        =              1
    Pruning alpha          =              1
    Radial Points          =             75
    Spherical Points       =            302
    Total Points           =         113250
    Total Blocks           =            923
    Max Points             =            256
    Max Functions          =             77


  -Total Gradient:
     Atom            X                  Y                   Z
    ------   -----------------  -----------------  -----------------
       1        0.000227882733    -0.015161683230     0.003337112443
       2       -0.003802028593    -0.001942622234     0.003199711459
       3        0.003876174285    -0.002996363188    -0.002112624665
       4        0.006783017321     0.010430775752     0.007734635639
       5       -0.007030223872     0.006021486039    -0.011355831427


*** tstop() called on thinkpad at Sat Jul 10 15:18:35 2021
Module time:
	user time   =       3.89 seconds =       0.06 minutes
	system time =       0.01 seconds =       0.00 minutes
	total time  =          1 seconds =       0.02 minutes
Total time:
	user time   =      42.25 seconds =       0.70 minutes
	system time =       0.33 seconds =       0.01 minutes
	total time  =         16 seconds =       0.27 minutes

			-----------------------------------------
			 OPTKING 2.0: for geometry optimizations 
			  - R.A. King,  Bethel University        
			-----------------------------------------

	Previous internal coordinate definitions found.
	---Fragment 1 Geometry and Gradient---
	 CR         -0.0016876792        0.1123014228       -0.0247170444
	 O           1.9121487144        1.5222411865       -1.7351622042
	 O          -1.9658937069        2.0545118061        0.9479274934
	 F          -1.4748787298       -2.1379158696       -1.7076193381
	 F           1.5247411035       -1.1804078307        2.4379737613
	             0.0002278827       -0.0151616832        0.0033371124
	            -0.0038020286       -0.0019426222        0.0031997115
	             0.0038761743       -0.0029963632       -0.0021126247
	             0.0067830173        0.0104307758        0.0077346356
	            -0.0070302239        0.0060214860       -0.0113558314

	---Fragment 1 Intrafragment Coordinates---
	 - Coordinate -           - BOHR/RAD -       - ANG/DEG -
	 R(1,2)           =         2.928536	       1.549714
	 R(1,3)           =         2.928536	       1.549715
	 R(1,4)           =         3.172685	       1.678913
	 R(1,5)           =         3.172685	       1.678912
	 B(2,1,3)         =         1.889151	     108.240366
	 B(2,1,4)         =         1.912517	     109.579165
	 B(2,1,5)         =         1.912517	     109.579163
	 B(3,1,4)         =         1.912518	     109.579196
	 B(3,1,5)         =         1.912518	     109.579203
	 B(4,1,5)         =         1.924260	     110.251958

	Current energy   :     -1394.1186932387

	Energy change for the previous step:
		Projected    :        -0.0016198968
		Actual       :        -0.0011342868

	Performing BFGS update.
	Previous computed or guess Hessian on step 1.
	Steps to be used in Hessian update: 1
	Taking RFO optimization step.
	Going to follow RFO solution 1.
	Using RFO vector 1.
	Norm of target step-size    0.02981
	Projected energy change by RFO approximation:        -0.0005835126

	Back-transformation to cartesian coordinates...
	Successfully converged to displaced geometry.

	--- Internal Coordinate Step in ANG or DEG, aJ/ANG or AJ/DEG ---
	 ---------------------------------------------------------------------------
	   Coordinate                Previous        Force       Change         New 
	   ----------                --------       ------       ------       ------
	    1 R(1,2)          =      1.549714     0.039965     0.001580     1.551295
	    2 R(1,3)          =      1.549715     0.039964     0.001580     1.551295
	    3 R(1,4)          =      1.678913     0.124220     0.009756     1.688668
	    4 R(1,5)          =      1.678912     0.124220     0.009756     1.688668
	    5 B(2,1,3)        =    108.240366     0.000272    -0.043005   108.197361
	    6 B(2,1,4)        =    109.579165    -0.000020     0.187881   109.767046
	    7 B(2,1,5)        =    109.579163    -0.000020     0.187894   109.767057
	    8 B(3,1,4)        =    109.579196    -0.000020     0.187785   109.766982
	    9 B(3,1,5)        =    109.579203    -0.000020     0.187777   109.766980
	   10 B(4,1,5)        =    110.251958    -0.000183    -0.695368   109.556590
	 ---------------------------------------------------------------------------
	Successfully symmetrized geometry.

  ==> Convergence Check <==

  Measures of convergence in internal coordinates in au.
  Criteria marked as inactive (o), active & met (*), and active & unmet ( ).
  ---------------------------------------------------------------------------------------------
   Step     Total Energy     Delta E     MAX Force     RMS Force      MAX Disp      RMS Disp   
  ---------------------------------------------------------------------------------------------
    Convergence Criteria             o    2.00e-06 *    1.00e-06 *    6.00e-06 *    4.00e-06 *
  ---------------------------------------------------------------------------------------------
      2   -1394.11869324   -1.13e-03 o    1.51e-02      7.21e-03      1.84e-02      9.43e-03    ~
  ---------------------------------------------------------------------------------------------

	Writing optimization data to binary file.
	Structure for next step:
	Cartesian Geometry (in Angstrom)
	   CR    -0.0009662731   0.0643369947  -0.0141607082
	    O     1.0125388273   0.8117053536  -0.9201207070
	    O    -1.0411676239   1.0935802552   0.5007715987
	    F    -0.7815626096  -1.1404556836  -0.9033992412
	    F     0.8082100045  -0.6329846749   1.2937296093
			--------------------------
			 OPTKING Finished Execution 
			--------------------------

    Structure for next step:
    Molecular point group: c1
    Full point group: C1

    Geometry (in Angstrom), charge = 0, multiplicity = 1:

    CR          -0.000951133558     0.063319651345    -0.013936690606
    O            1.012553970814     0.810688013170    -0.919896692893
    O           -1.041152488498     1.092562915893     0.500995618413
    F           -0.781547473151    -1.141473031628    -0.903175227027
    F            0.808225147202    -0.634002020998     1.293953632035

gradient() will perform analytic gradient computation.

*** tstart() called on thinkpad
*** at Sat Jul 10 15:18:35 2021

   => Loading Basis Set <=

    Name: DEF2-SV(P)
    Role: ORBITAL
    Keyword: BASIS
    atoms 1   entry CR         line   606 file /usr/share/psi4/basis/def2-sv_p_.gbs 
    atoms 2-3 entry O          line   128 file /usr/share/psi4/basis/def2-sv_p_.gbs 
    atoms 4-5 entry F          line   148 file /usr/share/psi4/basis/def2-sv_p_.gbs 


         ---------------------------------------------------------
                                   SCF
               by Justin Turney, Rob Parrish, Andy Simmonett
                          and Daniel G. A. Smith
                              RKS Reference
                        4 Threads,   7629 MiB Core
         ---------------------------------------------------------

  ==> Geometry <==

    Molecular point group: c1
    Full point group: C1

    Geometry (in Angstrom), charge = 0, multiplicity = 1:

       Center              X                  Y                   Z               Mass       
    ------------   -----------------  -----------------  -----------------  -----------------
         CR          -0.000951133558     0.063319651345    -0.013936690606    51.940506230000
         O            1.012553970814     0.810688013170    -0.919896692893    15.994914619570
         O           -1.041152488498     1.092562915893     0.500995618413    15.994914619570
         F           -0.781547473151    -1.141473031628    -0.903175227027    18.998403162730
         F            0.808225147202    -0.634002020998     1.293953632035    18.998403162730

  Running in c1 symmetry.

  Rotational constants: A =      0.14983  B =      0.13725  C =      0.12551 [cm^-1]
  Rotational constants: A =   4491.75709  B =   4114.68345  C =   3762.76939 [MHz]
  Nuclear repulsion =  352.856937803128517

  Charge       = 0
  Multiplicity = 1
  Electrons    = 58
  Nalpha       = 29
  Nbeta        = 29

  ==> Algorithm <==

  SCF Algorithm Type is DF.
  DIIS enabled.
  MOM disabled.
  Fractional occupation disabled.
  Guess Type is READ.
  Energy threshold   = 1.00e-08
  Density threshold  = 1.00e-08
  Integral threshold = 0.00e+00

  ==> Primary Basis <==

  Basis Set: DEF2-SV(P)
    Blend: DEF2-SV(P)
    Number of shells: 34
    Number of basis function: 80
    Number of Cartesian functions: 86
    Spherical Harmonics?: true
    Max angular momentum: 2

  ==> DFT Potential <==

   => Composite Functional: MY R2SCAN <= 

    Re-regularized SCAN exchange by Furness et al
    Re-regularized SCAN correlation by Furness et al
    J. W. Furness, A. D. Kaplan, J. Ning, J. P. Perdew, and J. Sun, J. Phys. Chem. Lett. 11, 8208 (2020)
    J. W. Furness, A. D. Kaplan, J. Ning, J. P. Perdew, and J. Sun, J. Phys. Chem. Lett. 11, 9248 (2020)

    Deriv               =              1
    GGA                 =           TRUE
    Meta                =           TRUE

    Exchange Hybrid     =          FALSE
    MP2 Hybrid          =          FALSE

   => Exchange Functionals <=

    1.0000   XC_mgga_x_r2scan

   => Correlation Functionals <=

    1.0000   XC_mgga_c_r2scan

   => Molecular Quadrature <=

    Radial Scheme          =       TREUTLER
    Pruning Scheme         =           FLAT
    Nuclear Scheme         =       TREUTLER

    BS radius alpha        =              1
    Pruning alpha          =              1
    Radial Points          =             75
    Spherical Points       =            302
    Total Points           =         113250
    Total Blocks           =            921
    Max Points             =            256
    Max Functions          =             77

   => Loading Basis Set <=

    Name: (DEF2-SV(P) AUX)
    Role: JKFIT
    Keyword: DF_BASIS_SCF
    atoms 1   entry CR         line  1731 file /usr/share/psi4/basis/def2-sv_p_-jkfit.gbs 
    atoms 2-3 entry O          line   323 file /usr/share/psi4/basis/def2-sv_p_-jkfit.gbs 
    atoms 4-5 entry F          line   383 file /usr/share/psi4/basis/def2-sv_p_-jkfit.gbs 

   => Loading Basis Set <=

    Name: DEF2-SV(P)
    Role: ORBITAL
    Keyword: BASIS
    atoms 1   entry CR         line   606 file /usr/share/psi4/basis/def2-sv_p_.gbs 
    atoms 2-3 entry O          line   128 file /usr/share/psi4/basis/def2-sv_p_.gbs 
    atoms 4-5 entry F          line   148 file /usr/share/psi4/basis/def2-sv_p_.gbs 

  Reading orbitals from file 180, no projection.

  ==> Pre-Iterations <==

   -------------------------------------------------------
    Irrep   Nso     Nmo     Nalpha   Nbeta   Ndocc  Nsocc
   -------------------------------------------------------
     A         80      80       0       0       0       0
   -------------------------------------------------------
    Total      80      80      29      29      29       0
   -------------------------------------------------------

  ==> Integral Setup <==

  DFHelper Memory: AOs need 0.031 GiB; user supplied 5.112 GiB. Using in-core AOs.

  ==> MemDFJK: Density-Fitted J/K Matrices <==

    J tasked:                   Yes
    K tasked:                    No
    wK tasked:                   No
    OpenMP threads:               4
    Memory [MiB]:              5234
    Algorithm:                 Core
    Schwarz Cutoff:           1E-12
    Mask sparsity (%):       1.2188
    Fitting Condition:        1E-10

   => Auxiliary Basis Set <=

  Basis Set: (DEF2-SV(P) AUX)
    Blend: DEF2-SV_P_-JKFIT
    Number of shells: 158
    Number of basis function: 572
    Number of Cartesian functions: 749
    Spherical Harmonics?: true
    Max angular momentum: 6

  Cached 100.0% of DFT collocation blocks in 0.476 [GiB].

  Minimum eigenvalue in the overlap matrix is 1.8435312297E-02.
  Using Symmetric Orthogonalization.

  SCF Guess: Orbitals guess was supplied from a previous computation.

  ==> Iterations <==

                           Total Energy        Delta E     RMS |[F,P]|

   @DF-RKS iter   0: -1394.11477717352545   -1.39411e+03   6.37797e-04 
   @DF-RKS iter   1: -1394.11910459539831   -4.32742e-03   9.42233e-05 DIIS
   @DF-RKS iter   2: -1394.11853389109410    5.70704e-04   4.96939e-04 DIIS
   @DF-RKS iter   3: -1394.11905431166610   -5.20421e-04   1.91580e-04 DIIS
   @DF-RKS iter   4: -1394.11913084524622   -7.65336e-05   3.07867e-05 DIIS
   @DF-RKS iter   5: -1394.11913267959289   -1.83435e-06   6.18512e-06 DIIS
   @DF-RKS iter   6: -1394.11913276918176   -8.95889e-08   3.90735e-07 DIIS
   @DF-RKS iter   7: -1394.11913276812288    1.05888e-09   7.25576e-07 DIIS
   @DF-RKS iter   8: -1394.11913276954147   -1.41858e-09   7.44580e-08 DIIS
   @DF-RKS iter   9: -1394.11913276955465   -1.31877e-11   1.91674e-08 DIIS
   @DF-RKS iter  10: -1394.11913276955420    4.54747e-13   1.27550e-08 DIIS
   @DF-RKS iter  11: -1394.11913276955534   -1.13687e-12   7.78476e-10 DIIS
  Energy and wave function converged.


  ==> Post-Iterations <==

    Orbital Energies [Eh]
    ---------------------

    Doubly Occupied:                                                      

       1A   -215.551361     2A    -24.845349     3A    -24.543709  
       4A    -24.543702     5A    -21.126405     6A    -21.126244  
       7A    -21.122689     8A    -19.060226     9A    -19.060218  
      10A     -3.043320    11A     -1.994144    12A     -1.993766  
      13A     -1.987376    14A     -1.143946    15A     -1.139157  
      16A     -0.945179    17A     -0.934854    18A     -0.497357  
      19A     -0.489825    20A     -0.475681    21A     -0.475061  
      22A     -0.473887    23A     -0.434451    24A     -0.424101  
      25A     -0.411727    26A     -0.393962    27A     -0.378796  
      28A     -0.378579    29A     -0.338008  

    Virtual:                                                              

      30A     -0.223369    31A     -0.209130    32A     -0.176881  
      33A     -0.143890    34A     -0.117099    35A      0.017013  
      36A      0.165556    37A      0.219633    38A      0.219639  
      39A      0.223640    40A      0.568432    41A      0.571733  
      42A      0.593413    43A      0.622186    44A      0.635525  
      45A      0.921066    46A      0.930006    47A      0.973543  
      48A      0.996986    49A      0.998490    50A      1.029921  
      51A      1.122799    52A      1.152895    53A      1.196143  
      54A      1.223922    55A      1.233505    56A      1.242018  
      57A      1.353448    58A      1.432001    59A      1.659844  
      60A      1.680906    61A      2.510333    62A      2.517772  
      63A      2.538817    64A      2.553643    65A      2.562606  
      66A      2.598720    67A      2.623482    68A      2.648741  
      69A      2.661132    70A      2.762225    71A      2.988476  
      72A      2.995214    73A      3.004606    74A      3.004970  
      75A      3.012884    76A      3.052619    77A      3.066635  
      78A      3.101717    79A      3.237565    80A      3.245414  

    Final Occupation by Irrep:
              A 
    DOCC [    29 ]

  @DF-RKS Final Energy: -1394.11913276955534

   => Energetics <=

    Nuclear Repulsion Energy =            352.8569378031285169
    One-Electron Energy =               -2620.5716347469424363
    Two-Electron Energy =                 959.8674340073636131
    DFT Exchange-Correlation Energy =     -86.2718698331047733
    Empirical Dispersion Energy =           0.0000000000000000
    VV10 Nonlocal Energy =                  0.0000000000000000
    Total Energy =                      -1394.1191327695553355

Computation Completed


Properties will be evaluated at   0.000000,   0.000000,   0.000000 [a0]

Properties computed using the SCF density matrix

  Nuclear Dipole Moment: [e a0]
     X:    -0.0218      Y:     1.4483      Z:    -0.3188

  Electronic Dipole Moment: [e a0]
     X:     0.0231      Y:    -1.5375      Z:     0.3384

  Dipole Moment: [e a0]
     X:     0.0013      Y:    -0.0892      Z:     0.0196     Total:     0.0914

  Dipole Moment: [D]
     X:     0.0034      Y:    -0.2268      Z:     0.0499     Total:     0.2322


*** tstop() called on thinkpad at Sat Jul 10 15:18:40 2021
Module time:
	user time   =      13.92 seconds =       0.23 minutes
	system time =       0.04 seconds =       0.00 minutes
	total time  =          5 seconds =       0.08 minutes
Total time:
	user time   =      56.21 seconds =       0.94 minutes
	system time =       0.37 seconds =       0.01 minutes
	total time  =         21 seconds =       0.35 minutes

*** tstart() called on thinkpad
*** at Sat Jul 10 15:18:40 2021


         ------------------------------------------------------------
                                   SCF GRAD                          
                          Rob Parrish, Justin Turney,                
                       Andy Simmonett, and Alex Sokolov              
         ------------------------------------------------------------

  ==> Geometry <==

    Molecular point group: c1
    Full point group: C1

    Geometry (in Angstrom), charge = 0, multiplicity = 1:

       Center              X                  Y                   Z               Mass       
    ------------   -----------------  -----------------  -----------------  -----------------
         CR          -0.000951133558     0.063319651345    -0.013936690606    51.940506230000
         O            1.012553970814     0.810688013170    -0.919896692893    15.994914619570
         O           -1.041152488498     1.092562915893     0.500995618413    15.994914619570
         F           -0.781547473151    -1.141473031628    -0.903175227027    18.998403162730
         F            0.808225147202    -0.634002020998     1.293953632035    18.998403162730

  Nuclear repulsion =  352.856937803128517

  ==> Basis Set <==

  Basis Set: DEF2-SV(P)
    Blend: DEF2-SV(P)
    Number of shells: 34
    Number of basis function: 80
    Number of Cartesian functions: 86
    Spherical Harmonics?: true
    Max angular momentum: 2

  ==> DFJKGrad: Density-Fitted SCF Gradients <==

    Gradient:                    1
    J tasked:                  Yes
    K tasked:                   No
    wK tasked:                  No
    OpenMP threads:              4
    Integrals threads:           4
    Memory [MiB]:             5722
    Schwarz Cutoff:          0E+00
    Fitting Condition:       1E-10

   => Auxiliary Basis Set <=

  Basis Set: (DEF2-SV(P) AUX)
    Blend: DEF2-SV_P_-JKFIT
    Number of shells: 158
    Number of basis function: 572
    Number of Cartesian functions: 749
    Spherical Harmonics?: true
    Max angular momentum: 6

  ==> DFT Potential <==

   => Composite Functional: MY R2SCAN <= 

    Re-regularized SCAN exchange by Furness et al
    Re-regularized SCAN correlation by Furness et al
    J. W. Furness, A. D. Kaplan, J. Ning, J. P. Perdew, and J. Sun, J. Phys. Chem. Lett. 11, 8208 (2020)
    J. W. Furness, A. D. Kaplan, J. Ning, J. P. Perdew, and J. Sun, J. Phys. Chem. Lett. 11, 9248 (2020)

    Deriv               =              1
    GGA                 =           TRUE
    Meta                =           TRUE

    Exchange Hybrid     =          FALSE
    MP2 Hybrid          =          FALSE

   => Exchange Functionals <=

    1.0000   XC_mgga_x_r2scan

   => Correlation Functionals <=

    1.0000   XC_mgga_c_r2scan

   => Molecular Quadrature <=

    Radial Scheme          =       TREUTLER
    Pruning Scheme         =           FLAT
    Nuclear Scheme         =       TREUTLER

    BS radius alpha        =              1
    Pruning alpha          =              1
    Radial Points          =             75
    Spherical Points       =            302
    Total Points           =         113250
    Total Blocks           =            921
    Max Points             =            256
    Max Functions          =             77


  -Total Gradient:
     Atom            X                  Y                   Z
    ------   -----------------  -----------------  -----------------
       1        0.000141001591    -0.009367893180     0.002061722574
       2       -0.002242938763    -0.000596767418     0.001760751046
       3        0.002270065501    -0.001216200929    -0.001361630032
       4        0.003650152979     0.004878174418     0.004308172650
       5       -0.003761330248     0.002512388295    -0.005934779996


*** tstop() called on thinkpad at Sat Jul 10 15:18:42 2021
Module time:
	user time   =       3.88 seconds =       0.06 minutes
	system time =       0.00 seconds =       0.00 minutes
	total time  =          2 seconds =       0.03 minutes
Total time:
	user time   =      60.09 seconds =       1.00 minutes
	system time =       0.37 seconds =       0.01 minutes
	total time  =         23 seconds =       0.38 minutes

			-----------------------------------------
			 OPTKING 2.0: for geometry optimizations 
			  - R.A. King,  Bethel University        
			-----------------------------------------

	Previous internal coordinate definitions found.
	---Fragment 1 Geometry and Gradient---
	 CR         -0.0017973819        0.1196567994       -0.0263365283
	 O           1.9134496921        1.5319783181       -1.7383528133
	 O          -1.9674930581        2.0646446859        0.9467445089
	 F          -1.4769106783       -2.1570714094       -1.7067538224
	 F           1.5273241759       -1.1980901827        2.4452179836
	             0.0001410016       -0.0093678932        0.0020617226
	            -0.0022429388       -0.0005967674        0.0017607510
	             0.0022700655       -0.0012162009       -0.0013616300
	             0.0036501530        0.0048781744        0.0043081726
	            -0.0037613302        0.0025123883       -0.0059347800

	---Fragment 1 Intrafragment Coordinates---
	 - Coordinate -           - BOHR/RAD -       - ANG/DEG -
	 R(1,2)           =         2.931522	       1.551295
	 R(1,3)           =         2.931522	       1.551295
	 R(1,4)           =         3.191121	       1.688668
	 R(1,5)           =         3.191121	       1.688668
	 B(2,1,3)         =         1.888400	     108.197361
	 B(2,1,4)         =         1.915796	     109.767046
	 B(2,1,5)         =         1.915797	     109.767057
	 B(3,1,4)         =         1.915795	     109.766982
	 B(3,1,5)         =         1.915795	     109.766980
	 B(4,1,5)         =         1.912123	     109.556590

	Current energy   :     -1394.1191327696

	Energy change for the previous step:
		Projected    :        -0.0005835126
		Actual       :        -0.0004395309
	Energy ratio indicates good step: Trust radius increased to 1.000e+00.


	Performing BFGS update.
	Previous computed or guess Hessian on step 1.
	Steps to be used in Hessian update: 2 1
	Taking RFO optimization step.
	Going to follow RFO solution 1.
	Using RFO vector 1.
	Norm of target step-size    0.02925
	Projected energy change by RFO approximation:        -0.0003680989

	Back-transformation to cartesian coordinates...
	Successfully converged to displaced geometry.

	--- Internal Coordinate Step in ANG or DEG, aJ/ANG or AJ/DEG ---
	 ---------------------------------------------------------------------------
	   Coordinate                Previous        Force       Change         New 
	   ----------                --------       ------       ------       ------
	    1 R(1,2)          =      1.551295     0.019163     0.001486     1.552781
	    2 R(1,3)          =      1.551295     0.019162     0.001486     1.552781
	    3 R(1,4)          =      1.688668     0.064954     0.009617     1.698286
	    4 R(1,5)          =      1.688668     0.064955     0.009617     1.698286
	    5 B(2,1,3)        =    108.197361     0.000280     0.607093   108.804455
	    6 B(2,1,4)        =    109.767046    -0.000054    -0.033635   109.733411
	    7 B(2,1,5)        =    109.767057    -0.000054    -0.033623   109.733434
	    8 B(3,1,4)        =    109.766982    -0.000054    -0.033607   109.733375
	    9 B(3,1,5)        =    109.766980    -0.000054    -0.033593   109.733387
	   10 B(4,1,5)        =    109.556590    -0.000059    -0.465182   109.091408
	 ---------------------------------------------------------------------------
	Successfully symmetrized geometry.

  ==> Convergence Check <==

  Measures of convergence in internal coordinates in au.
  Criteria marked as inactive (o), active & met (*), and active & unmet ( ).
  ---------------------------------------------------------------------------------------------
   Step     Total Energy     Delta E     MAX Force     RMS Force      MAX Disp      RMS Disp   
  ---------------------------------------------------------------------------------------------
    Convergence Criteria             o    2.00e-06 *    1.00e-06 *    6.00e-06 *    4.00e-06 *
  ---------------------------------------------------------------------------------------------
      3   -1394.11913277   -4.40e-04 o    7.88e-03      3.89e-03      1.82e-02      9.25e-03    ~
  ---------------------------------------------------------------------------------------------

	Writing optimization data to binary file.
	Structure for next step:
	Cartesian Geometry (in Angstrom)
	   CR    -0.0010508944   0.0699504582  -0.0153959316
	    O     1.0174508519   0.8109760086  -0.9235065283
	    O    -1.0460784686   1.0941994272   0.5041818003
	    F    -0.7837124907  -1.1464622627  -0.9053149644
	    F     0.8105190245  -0.6375681043   1.2979762641
			--------------------------
			 OPTKING Finished Execution 
			--------------------------

    Structure for next step:
    Molecular point group: c1
    Full point group: C1

    Geometry (in Angstrom), charge = 0, multiplicity = 1:

    CR          -0.001024657950     0.068206363860    -0.015012112042
    O            1.017477092344     0.809231917162    -0.923122712393
    O           -1.046052236237     1.092455336814     0.504565621885
    F           -0.783686257346    -1.148206361906    -0.904931148427
    F            0.810545264132    -0.639312201447     1.298360088801

gradient() will perform analytic gradient computation.

*** tstart() called on thinkpad
*** at Sat Jul 10 15:18:42 2021

   => Loading Basis Set <=

    Name: DEF2-SV(P)
    Role: ORBITAL
    Keyword: BASIS
    atoms 1   entry CR         line   606 file /usr/share/psi4/basis/def2-sv_p_.gbs 
    atoms 2-3 entry O          line   128 file /usr/share/psi4/basis/def2-sv_p_.gbs 
    atoms 4-5 entry F          line   148 file /usr/share/psi4/basis/def2-sv_p_.gbs 


         ---------------------------------------------------------
                                   SCF
               by Justin Turney, Rob Parrish, Andy Simmonett
                          and Daniel G. A. Smith
                              RKS Reference
                        4 Threads,   7629 MiB Core
         ---------------------------------------------------------

  ==> Geometry <==

    Molecular point group: c1
    Full point group: C1

    Geometry (in Angstrom), charge = 0, multiplicity = 1:

       Center              X                  Y                   Z               Mass       
    ------------   -----------------  -----------------  -----------------  -----------------
         CR          -0.001024657950     0.068206363860    -0.015012112042    51.940506230000
         O            1.017477092344     0.809231917162    -0.923122712393    15.994914619570
         O           -1.046052236237     1.092455336814     0.504565621885    15.994914619570
         F           -0.783686257346    -1.148206361906    -0.904931148427    18.998403162730
         F            0.810545264132    -0.639312201447     1.298360088801    18.998403162730

  Running in c1 symmetry.

  Rotational constants: A =      0.14864  B =      0.13626  C =      0.12475 [cm^-1]
  Rotational constants: A =   4456.23291  B =   4085.06400  C =   3739.97042 [MHz]
  Nuclear repulsion =  351.669873345608892

  Charge       = 0
  Multiplicity = 1
  Electrons    = 58
  Nalpha       = 29
  Nbeta        = 29

  ==> Algorithm <==

  SCF Algorithm Type is DF.
  DIIS enabled.
  MOM disabled.
  Fractional occupation disabled.
  Guess Type is READ.
  Energy threshold   = 1.00e-08
  Density threshold  = 1.00e-08
  Integral threshold = 0.00e+00

  ==> Primary Basis <==

  Basis Set: DEF2-SV(P)
    Blend: DEF2-SV(P)
    Number of shells: 34
    Number of basis function: 80
    Number of Cartesian functions: 86
    Spherical Harmonics?: true
    Max angular momentum: 2

  ==> DFT Potential <==

   => Composite Functional: MY R2SCAN <= 

    Re-regularized SCAN exchange by Furness et al
    Re-regularized SCAN correlation by Furness et al
    J. W. Furness, A. D. Kaplan, J. Ning, J. P. Perdew, and J. Sun, J. Phys. Chem. Lett. 11, 8208 (2020)
    J. W. Furness, A. D. Kaplan, J. Ning, J. P. Perdew, and J. Sun, J. Phys. Chem. Lett. 11, 9248 (2020)

    Deriv               =              1
    GGA                 =           TRUE
    Meta                =           TRUE

    Exchange Hybrid     =          FALSE
    MP2 Hybrid          =          FALSE

   => Exchange Functionals <=

    1.0000   XC_mgga_x_r2scan

   => Correlation Functionals <=

    1.0000   XC_mgga_c_r2scan

   => Molecular Quadrature <=

    Radial Scheme          =       TREUTLER
    Pruning Scheme         =           FLAT
    Nuclear Scheme         =       TREUTLER

    BS radius alpha        =              1
    Pruning alpha          =              1
    Radial Points          =             75
    Spherical Points       =            302
    Total Points           =         113250
    Total Blocks           =            919
    Max Points             =            256
    Max Functions          =             77

   => Loading Basis Set <=

    Name: (DEF2-SV(P) AUX)
    Role: JKFIT
    Keyword: DF_BASIS_SCF
    atoms 1   entry CR         line  1731 file /usr/share/psi4/basis/def2-sv_p_-jkfit.gbs 
    atoms 2-3 entry O          line   323 file /usr/share/psi4/basis/def2-sv_p_-jkfit.gbs 
    atoms 4-5 entry F          line   383 file /usr/share/psi4/basis/def2-sv_p_-jkfit.gbs 

   => Loading Basis Set <=

    Name: DEF2-SV(P)
    Role: ORBITAL
    Keyword: BASIS
    atoms 1   entry CR         line   606 file /usr/share/psi4/basis/def2-sv_p_.gbs 
    atoms 2-3 entry O          line   128 file /usr/share/psi4/basis/def2-sv_p_.gbs 
    atoms 4-5 entry F          line   148 file /usr/share/psi4/basis/def2-sv_p_.gbs 

  Reading orbitals from file 180, no projection.

  ==> Pre-Iterations <==

   -------------------------------------------------------
    Irrep   Nso     Nmo     Nalpha   Nbeta   Ndocc  Nsocc
   -------------------------------------------------------
     A         80      80       0       0       0       0
   -------------------------------------------------------
    Total      80      80      29      29      29       0
   -------------------------------------------------------

  ==> Integral Setup <==

  DFHelper Memory: AOs need 0.031 GiB; user supplied 5.113 GiB. Using in-core AOs.

  ==> MemDFJK: Density-Fitted J/K Matrices <==

    J tasked:                   Yes
    K tasked:                    No
    wK tasked:                   No
    OpenMP threads:               4
    Memory [MiB]:              5235
    Algorithm:                 Core
    Schwarz Cutoff:           1E-12
    Mask sparsity (%):       1.2188
    Fitting Condition:        1E-10

   => Auxiliary Basis Set <=

  Basis Set: (DEF2-SV(P) AUX)
    Blend: DEF2-SV_P_-JKFIT
    Number of shells: 158
    Number of basis function: 572
    Number of Cartesian functions: 749
    Spherical Harmonics?: true
    Max angular momentum: 6

  Cached 100.0% of DFT collocation blocks in 0.475 [GiB].

  Minimum eigenvalue in the overlap matrix is 1.8547680475E-02.
  Using Symmetric Orthogonalization.

  SCF Guess: Orbitals guess was supplied from a previous computation.

  ==> Iterations <==

                           Total Energy        Delta E     RMS |[F,P]|

   @DF-RKS iter   0: -1394.11475028408950   -1.39411e+03   6.35421e-04 
   @DF-RKS iter   1: -1394.11927900519777   -4.52872e-03   7.42846e-05 DIIS
   @DF-RKS iter   2: -1394.11890108210582    3.77923e-04   4.10338e-04 DIIS
   @DF-RKS iter   3: -1394.11925325599213   -3.52174e-04   1.39590e-04 DIIS
   @DF-RKS iter   4: -1394.11929419293142   -4.09369e-05   3.18132e-05 DIIS
   @DF-RKS iter   5: -1394.11929608063701   -1.88771e-06   5.38113e-06 DIIS
   @DF-RKS iter   6: -1394.11929614748169   -6.68447e-08   3.72850e-07 DIIS
   @DF-RKS iter   7: -1394.11929614775363   -2.71939e-10   1.68939e-07 DIIS
   @DF-RKS iter   8: -1394.11929614779001   -3.63798e-11   1.26290e-07 DIIS
   @DF-RKS iter   9: -1394.11929614783003   -4.00178e-11   4.65779e-09 DIIS
  Energy and wave function converged.


  ==> Post-Iterations <==

    Orbital Energies [Eh]
    ---------------------

    Doubly Occupied:                                                      

       1A   -215.554112     2A    -24.847530     3A    -24.542719  
       4A    -24.542711     5A    -21.128654     6A    -21.128489  
       7A    -21.124912     8A    -19.061848     9A    -19.061840  
      10A     -3.044282    11A     -1.995230    12A     -1.994260  
      13A     -1.987729    14A     -1.141804    15A     -1.137258  
      16A     -0.946471    17A     -0.935859    18A     -0.495203  
      19A     -0.488126    20A     -0.474600    21A     -0.473933  
      22A     -0.472371    23A     -0.434555    24A     -0.422555  
      25A     -0.410998    26A     -0.394604    27A     -0.379258  
      28A     -0.379032    29A     -0.339476  

    Virtual:                                                              

      30A     -0.226005    31A     -0.210676    32A     -0.180053  
      33A     -0.145780    34A     -0.119629    35A      0.016898  
      36A      0.165349    37A      0.217380    38A      0.219447  
      39A      0.222074    40A      0.568716    41A      0.571169  
      42A      0.595663    43A      0.620281    44A      0.633749  
      45A      0.922138    46A      0.929111    47A      0.971914  
      48A      0.996623    49A      0.997722    50A      1.027595  
      51A      1.123388    52A      1.152227    53A      1.192328  
      54A      1.222404    55A      1.232551    56A      1.241531  
      57A      1.351819    58A      1.434206    59A      1.661355  
      60A      1.686241    61A      2.509066    62A      2.516780  
      63A      2.537696    64A      2.553390    65A      2.561832  
      66A      2.596871    67A      2.620490    68A      2.648883  
      69A      2.658938    70A      2.762404    71A      2.989950  
      72A      2.997443    73A      3.006081    74A      3.006828  
      75A      3.015161    76A      3.052867    77A      3.067620  
      78A      3.102594    79A      3.234449    80A      3.241417  

    Final Occupation by Irrep:
              A 
    DOCC [    29 ]

  @DF-RKS Final Energy: -1394.11929614783003

   => Energetics <=

    Nuclear Repulsion Energy =            351.6698733456088917
    One-Electron Energy =               -2618.1898195978292279
    Two-Electron Energy =                 958.6613195578070190
    DFT Exchange-Correlation Energy =     -86.2606694534164831
    Empirical Dispersion Energy =           0.0000000000000000
    VV10 Nonlocal Energy =                  0.0000000000000000
    Total Energy =                      -1394.1192961478300276

Computation Completed


Properties will be evaluated at   0.000000,   0.000000,   0.000000 [a0]

Properties computed using the SCF density matrix

  Nuclear Dipole Moment: [e a0]
     X:    -0.0217      Y:     1.4415      Z:    -0.3173

  Electronic Dipole Moment: [e a0]
     X:     0.0226      Y:    -1.5018      Z:     0.3305

  Dipole Moment: [e a0]
     X:     0.0009      Y:    -0.0604      Z:     0.0133     Total:     0.0618

  Dipole Moment: [D]
     X:     0.0023      Y:    -0.1534      Z:     0.0338     Total:     0.1571


*** tstop() called on thinkpad at Sat Jul 10 15:18:46 2021
Module time:
	user time   =      12.06 seconds =       0.20 minutes
	system time =       0.04 seconds =       0.00 minutes
	total time  =          4 seconds =       0.07 minutes
Total time:
	user time   =      72.20 seconds =       1.20 minutes
	system time =       0.41 seconds =       0.01 minutes
	total time  =         27 seconds =       0.45 minutes

*** tstart() called on thinkpad
*** at Sat Jul 10 15:18:46 2021


         ------------------------------------------------------------
                                   SCF GRAD                          
                          Rob Parrish, Justin Turney,                
                       Andy Simmonett, and Alex Sokolov              
         ------------------------------------------------------------

  ==> Geometry <==

    Molecular point group: c1
    Full point group: C1

    Geometry (in Angstrom), charge = 0, multiplicity = 1:

       Center              X                  Y                   Z               Mass       
    ------------   -----------------  -----------------  -----------------  -----------------
         CR          -0.001024657950     0.068206363860    -0.015012112042    51.940506230000
         O            1.017477092344     0.809231917162    -0.923122712393    15.994914619570
         O           -1.046052236237     1.092455336814     0.504565621885    15.994914619570
         F           -0.783686257346    -1.148206361906    -0.904931148427    18.998403162730
         F            0.810545264132    -0.639312201447     1.298360088801    18.998403162730

  Nuclear repulsion =  351.669873345608892

  ==> Basis Set <==

  Basis Set: DEF2-SV(P)
    Blend: DEF2-SV(P)
    Number of shells: 34
    Number of basis function: 80
    Number of Cartesian functions: 86
    Spherical Harmonics?: true
    Max angular momentum: 2

  ==> DFJKGrad: Density-Fitted SCF Gradients <==

    Gradient:                    1
    J tasked:                  Yes
    K tasked:                   No
    wK tasked:                  No
    OpenMP threads:              4
    Integrals threads:           4
    Memory [MiB]:             5722
    Schwarz Cutoff:          0E+00
    Fitting Condition:       1E-10

   => Auxiliary Basis Set <=

  Basis Set: (DEF2-SV(P) AUX)
    Blend: DEF2-SV_P_-JKFIT
    Number of shells: 158
    Number of basis function: 572
    Number of Cartesian functions: 749
    Spherical Harmonics?: true
    Max angular momentum: 6

  ==> DFT Potential <==

   => Composite Functional: MY R2SCAN <= 

    Re-regularized SCAN exchange by Furness et al
    Re-regularized SCAN correlation by Furness et al
    J. W. Furness, A. D. Kaplan, J. Ning, J. P. Perdew, and J. Sun, J. Phys. Chem. Lett. 11, 8208 (2020)
    J. W. Furness, A. D. Kaplan, J. Ning, J. P. Perdew, and J. Sun, J. Phys. Chem. Lett. 11, 9248 (2020)

    Deriv               =              1
    GGA                 =           TRUE
    Meta                =           TRUE

    Exchange Hybrid     =          FALSE
    MP2 Hybrid          =          FALSE

   => Exchange Functionals <=

    1.0000   XC_mgga_x_r2scan

   => Correlation Functionals <=

    1.0000   XC_mgga_c_r2scan

   => Molecular Quadrature <=

    Radial Scheme          =       TREUTLER
    Pruning Scheme         =           FLAT
    Nuclear Scheme         =       TREUTLER

    BS radius alpha        =              1
    Pruning alpha          =              1
    Radial Points          =             75
    Spherical Points       =            302
    Total Points           =         113250
    Total Blocks           =            919
    Max Points             =            256
    Max Functions          =             77


  -Total Gradient:
     Atom            X                  Y                   Z
    ------   -----------------  -----------------  -----------------
       1        0.000027539079    -0.001821590071     0.000400911984
       2       -0.000036228931    -0.000670864705     0.000181134026
       3        0.000056502097    -0.000683611831     0.000116995721
       4        0.000660697513    -0.000176058522     0.000989935242
       5       -0.000649214774    -0.000594174478    -0.000820404425


*** tstop() called on thinkpad at Sat Jul 10 15:18:48 2021
Module time:
	user time   =       3.92 seconds =       0.07 minutes
	system time =       0.01 seconds =       0.00 minutes
	total time  =          2 seconds =       0.03 minutes
Total time:
	user time   =      76.12 seconds =       1.27 minutes
	system time =       0.42 seconds =       0.01 minutes
	total time  =         29 seconds =       0.48 minutes

			-----------------------------------------
			 OPTKING 2.0: for geometry optimizations 
			  - R.A. King,  Bethel University        
			-----------------------------------------

	Previous internal coordinate definitions found.
	---Fragment 1 Geometry and Gradient---
	 CR         -0.0019363229        0.1288913477       -0.0283687803
	 O           1.9227530435        1.5292266954       -1.7444491066
	 O          -1.9767522394        2.0644413909        0.9534908377
	 F          -1.4809523947       -2.1697955595       -1.7100720329
	 F           1.5317085615       -1.2081249694        2.4535449801
	             0.0000275391       -0.0018215901        0.0004009120
	            -0.0000362289       -0.0006708647        0.0001811340
	             0.0000565021       -0.0006836118        0.0001169957
	             0.0006606975       -0.0001760585        0.0009899352
	            -0.0006492148       -0.0005941745       -0.0008204044

	---Fragment 1 Intrafragment Coordinates---
	 - Coordinate -           - BOHR/RAD -       - ANG/DEG -
	 R(1,2)           =         2.934331	       1.552781
	 R(1,3)           =         2.934331	       1.552781
	 R(1,4)           =         3.209295	       1.698286
	 R(1,5)           =         3.209295	       1.698286
	 B(2,1,3)         =         1.898996	     108.804455
	 B(2,1,4)         =         1.915209	     109.733411
	 B(2,1,5)         =         1.915210	     109.733434
	 B(3,1,4)         =         1.915209	     109.733375
	 B(3,1,5)         =         1.915209	     109.733387
	 B(4,1,5)         =         1.904004	     109.091408

	Current energy   :     -1394.1192961478

	Energy change for the previous step:
		Projected    :        -0.0003680989
		Actual       :        -0.0001633783

	Performing BFGS update.
	Previous computed or guess Hessian on step 1.
	Steps to be used in Hessian update: 3 2
	Taking RFO optimization step.
	Going to follow RFO solution 1.
	Using RFO vector 1.
	Norm of target step-size    0.00485
	Projected energy change by RFO approximation:        -0.0000073101

	Back-transformation to cartesian coordinates...
	Successfully converged to displaced geometry.

	--- Internal Coordinate Step in ANG or DEG, aJ/ANG or AJ/DEG ---
	 ---------------------------------------------------------------------------
	   Coordinate                Previous        Force       Change         New 
	   ----------                --------       ------       ------       ------
	    1 R(1,2)          =      1.552781    -0.000170     0.000135     1.552916
	    2 R(1,3)          =      1.552781    -0.000170     0.000135     1.552916
	    3 R(1,4)          =      1.698286     0.009606     0.001369     1.699655
	    4 R(1,5)          =      1.698286     0.009606     0.001369     1.699655
	    5 B(2,1,3)        =    108.804455     0.000010     0.029937   108.834392
	    6 B(2,1,4)        =    109.733411    -0.000018    -0.046137   109.687274
	    7 B(2,1,5)        =    109.733434    -0.000018    -0.046154   109.687280
	    8 B(3,1,4)        =    109.733375    -0.000018    -0.046107   109.687268
	    9 B(3,1,5)        =    109.733387    -0.000018    -0.046115   109.687272
	   10 B(4,1,5)        =    109.091408     0.000061     0.153370   109.244779
	 ---------------------------------------------------------------------------
	Successfully symmetrized geometry.

  ==> Convergence Check <==

  Measures of convergence in internal coordinates in au.
  Criteria marked as inactive (o), active & met (*), and active & unmet ( ).
[...]

  ==> DFT Potential <==

   => Composite Functional: MY R2SCAN <= 

    Re-regularized SCAN exchange by Furness et al
    Re-regularized SCAN correlation by Furness et al
    J. W. Furness, A. D. Kaplan, J. Ning, J. P. Perdew, and J. Sun, J. Phys. Chem. Lett. 11, 8208 (2020)
    J. W. Furness, A. D. Kaplan, J. Ning, J. P. Perdew, and J. Sun, J. Phys. Chem. Lett. 11, 9248 (2020)

    Deriv               =              1
    GGA                 =           TRUE
    Meta                =           TRUE

    Exchange Hybrid     =          FALSE
    MP2 Hybrid          =          FALSE

   => Exchange Functionals <=

    1.0000   XC_mgga_x_r2scan

   => Correlation Functionals <=

    1.0000   XC_mgga_c_r2scan

   => Molecular Quadrature <=

    Radial Scheme          =       TREUTLER
    Pruning Scheme         =           FLAT
    Nuclear Scheme         =       TREUTLER

    BS radius alpha        =              1
    Pruning alpha          =              1
    Radial Points          =             75
    Spherical Points       =            302
    Total Points           =         113250
    Total Blocks           =            921
    Max Points             =            255
    Max Functions          =             77

   => Loading Basis Set <=

    Name: (DEF2-SV(P) AUX)
    Role: JKFIT
    Keyword: DF_BASIS_SCF
    atoms 1   entry CR         line  1731 file /usr/share/psi4/basis/def2-sv_p_-jkfit.gbs 
    atoms 2-3 entry O          line   323 file /usr/share/psi4/basis/def2-sv_p_-jkfit.gbs 
    atoms 4-5 entry F          line   383 file /usr/share/psi4/basis/def2-sv_p_-jkfit.gbs 

   => Loading Basis Set <=

    Name: DEF2-SV(P)
    Role: ORBITAL
    Keyword: BASIS
    atoms 1   entry CR         line   606 file /usr/share/psi4/basis/def2-sv_p_.gbs 
    atoms 2-3 entry O          line   128 file /usr/share/psi4/basis/def2-sv_p_.gbs 
    atoms 4-5 entry F          line   148 file /usr/share/psi4/basis/def2-sv_p_.gbs 

  Reading orbitals from file 180, no projection.

  ==> Pre-Iterations <==

   -------------------------------------------------------
    Irrep   Nso     Nmo     Nalpha   Nbeta   Ndocc  Nsocc
   -------------------------------------------------------
     A         80      80       0       0       0       0
   -------------------------------------------------------
    Total      80      80      29      29      29       0
   -------------------------------------------------------

  ==> Integral Setup <==

  DFHelper Memory: AOs need 0.031 GiB; user supplied 5.113 GiB. Using in-core AOs.

  ==> MemDFJK: Density-Fitted J/K Matrices <==

    J tasked:                   Yes
    K tasked:                    No
    wK tasked:                   No
    OpenMP threads:               4
    Memory [MiB]:              5235
    Algorithm:                 Core
    Schwarz Cutoff:           1E-12
    Mask sparsity (%):       1.2188
    Fitting Condition:        1E-10

   => Auxiliary Basis Set <=

  Basis Set: (DEF2-SV(P) AUX)
    Blend: DEF2-SV_P_-JKFIT
    Number of shells: 158
    Number of basis function: 572
    Number of Cartesian functions: 749
    Spherical Harmonics?: true
    Max angular momentum: 6

  Cached 100.0% of DFT collocation blocks in 0.475 [GiB].

  Minimum eigenvalue in the overlap matrix is 1.8555925198E-02.
  Using Symmetric Orthogonalization.

  SCF Guess: Orbitals guess was supplied from a previous computation.

  ==> Iterations <==

                           Total Energy        Delta E     RMS |[F,P]|

   @DF-RKS iter   0: -1394.11931813140814   -1.39412e+03   2.19712e-07 
   @DF-RKS iter   1: -1394.11931803817538    9.32328e-08   8.40685e-08 DIIS
   @DF-RKS iter   2: -1394.11931803737434    8.01037e-10   5.94422e-07 DIIS
   @DF-RKS iter   3: -1394.11931803816424   -7.89896e-10   1.12357e-07 DIIS
   @DF-RKS iter   4: -1394.11931803819220   -2.79670e-11   3.09290e-08 DIIS
   @DF-RKS iter   5: -1394.11931803819471   -2.50111e-12   1.34560e-08 DIIS
   @DF-RKS iter   6: -1394.11931803819493   -2.27374e-13   1.37151e-09 DIIS
  Energy and wave function converged.


  ==> Post-Iterations <==

    Orbital Energies [Eh]
    ---------------------

    Doubly Occupied:                                                      

       1A   -215.554446     2A    -24.847782     3A    -24.542439  
       4A    -24.542434     5A    -21.128905     6A    -21.128748  
       7A    -21.125182     8A    -19.062117     9A    -19.062109  
      10A     -3.044396    11A     -1.995420    12A     -1.994280  
      13A     -1.987743    14A     -1.141380    15A     -1.136803  
      16A     -0.946705    17A     -0.936072    18A     -0.494669  
      19A     -0.487993    20A     -0.474404    21A     -0.473453  
      22A     -0.472251    23A     -0.434512    24A     -0.422425  
      25A     -0.410900    26A     -0.394744    27A     -0.379169  
      28A     -0.379121    29A     -0.339701  

    Virtual:                                                              

      30A     -0.226159    31A     -0.210833    32A     -0.180744  
      33A     -0.145868    34A     -0.119928    35A      0.016802  
      36A      0.164886    37A      0.217909    38A      0.219322  
      39A      0.221479    40A      0.568466    41A      0.571722  
      42A      0.596316    43A      0.620357    44A      0.632978  
      45A      0.922077    46A      0.928964    47A      0.971717  
      48A      0.996643    49A      0.997887    50A      1.027473  
      51A      1.123672    52A      1.152306    53A      1.192556  
      54A      1.220235    55A      1.232541    56A      1.241946  
      57A      1.352631    58A      1.433277    59A      1.663090  
      60A      1.684724    61A      2.508739    62A      2.516543  
      63A      2.537551    64A      2.553208    65A      2.562042  
      66A      2.597025    67A      2.620317    68A      2.648769  
      69A      2.658072    70A      2.762501    71A      2.990511  
      72A      2.997870    73A      3.006327    74A      3.007349  
      75A      3.015631    76A      3.054061    77A      3.067928  
      78A      3.101628    79A      3.235417    80A      3.239414  

    Final Occupation by Irrep:
              A 
    DOCC [    29 ]

  @DF-RKS Final Energy: -1394.11931803819493

   => Energetics <=

    Nuclear Repulsion Energy =            351.4856536427889750
    One-Electron Energy =               -2617.8224485784403441
    Two-Electron Energy =                 958.4768208112955108
    DFT Exchange-Correlation Energy =     -86.2593439138389328
    Empirical Dispersion Energy =           0.0000000000000000
    VV10 Nonlocal Energy =                  0.0000000000000000
    Total Energy =                      -1394.1193180381949333

Computation Completed


Properties will be evaluated at   0.000000,   0.000000,   0.000000 [a0]

Properties computed using the SCF density matrix

  Nuclear Dipole Moment: [e a0]
     X:    -0.0216      Y:     1.4404      Z:    -0.3170

  Electronic Dipole Moment: [e a0]
     X:     0.0226      Y:    -1.5008      Z:     0.3303

  Dipole Moment: [e a0]
     X:     0.0009      Y:    -0.0604      Z:     0.0133     Total:     0.0618

  Dipole Moment: [D]
     X:     0.0023      Y:    -0.1534      Z:     0.0338     Total:     0.1571


*** tstop() called on thinkpad at Sat Jul 10 15:19:36 2021
Module time:
	user time   =       9.20 seconds =       0.15 minutes
	system time =       0.04 seconds =       0.00 minutes
	total time  =          3 seconds =       0.05 minutes
Total time:
	user time   =     201.13 seconds =       3.35 minutes
	system time =       0.98 seconds =       0.02 minutes
	total time  =         77 seconds =       1.28 minutes

*** tstart() called on thinkpad
*** at Sat Jul 10 15:19:36 2021


         ------------------------------------------------------------
                                   SCF GRAD                          
                          Rob Parrish, Justin Turney,                
                       Andy Simmonett, and Alex Sokolov              
         ------------------------------------------------------------

  ==> Geometry <==

    Molecular point group: c1
    Full point group: C1

    Geometry (in Angstrom), charge = 0, multiplicity = 1:

       Center              X                  Y                   Z               Mass       
    ------------   -----------------  -----------------  -----------------  -----------------
         CR          -0.001009654874     0.067194786410    -0.014789436104    51.940506230000
         O            1.017590620539     0.807857845855    -0.922887267772    15.994914619570
         O           -1.046124713343     1.091107143959     0.504929565528    15.994914619570
         F           -0.786497857957    -1.146563107810    -0.909321287770    18.998403162730
         F            0.813281285967    -0.635897965877     1.301636815355    18.998403162730

  Nuclear repulsion =  351.485653642788975

  ==> Basis Set <==

  Basis Set: DEF2-SV(P)
    Blend: DEF2-SV(P)
    Number of shells: 34
    Number of basis function: 80
    Number of Cartesian functions: 86
    Spherical Harmonics?: true
    Max angular momentum: 2

  ==> DFJKGrad: Density-Fitted SCF Gradients <==

    Gradient:                    1
    J tasked:                  Yes
    K tasked:                   No
    wK tasked:                  No
    OpenMP threads:              4
    Integrals threads:           4
    Memory [MiB]:             5722
    Schwarz Cutoff:          0E+00
    Fitting Condition:       1E-10

   => Auxiliary Basis Set <=

  Basis Set: (DEF2-SV(P) AUX)
    Blend: DEF2-SV_P_-JKFIT
    Number of shells: 158
    Number of basis function: 572
    Number of Cartesian functions: 749
    Spherical Harmonics?: true
    Max angular momentum: 6

  ==> DFT Potential <==

   => Composite Functional: MY R2SCAN <= 

    Re-regularized SCAN exchange by Furness et al
    Re-regularized SCAN correlation by Furness et al
    J. W. Furness, A. D. Kaplan, J. Ning, J. P. Perdew, and J. Sun, J. Phys. Chem. Lett. 11, 8208 (2020)
    J. W. Furness, A. D. Kaplan, J. Ning, J. P. Perdew, and J. Sun, J. Phys. Chem. Lett. 11, 9248 (2020)

    Deriv               =              1
    GGA                 =           TRUE
    Meta                =           TRUE

    Exchange Hybrid     =          FALSE
    MP2 Hybrid          =          FALSE

   => Exchange Functionals <=

    1.0000   XC_mgga_x_r2scan

   => Correlation Functionals <=

    1.0000   XC_mgga_c_r2scan

   => Molecular Quadrature <=

    Radial Scheme          =       TREUTLER
    Pruning Scheme         =           FLAT
    Nuclear Scheme         =       TREUTLER

    BS radius alpha        =              1
    Pruning alpha          =              1
    Radial Points          =             75
    Spherical Points       =            302
    Total Points           =         113250
    Total Blocks           =            921
    Max Points             =            255
    Max Functions          =             77


  -Total Gradient:
     Atom            X                  Y                   Z
    ------   -----------------  -----------------  -----------------
       1        0.000011965468    -0.000795431507     0.000175076499
       2        0.000012385103    -0.000794020437     0.000174431346
       3        0.000011478208    -0.000793917160     0.000175063416
       4        0.000012084257    -0.000793875025     0.000174968332
       5        0.000011758504    -0.000793974426     0.000174516914


*** tstop() called on thinkpad at Sat Jul 10 15:19:38 2021
Module time:
	user time   =       3.87 seconds =       0.06 minutes
	system time =       0.02 seconds =       0.00 minutes
	total time  =          2 seconds =       0.03 minutes
Total time:
	user time   =     205.00 seconds =       3.42 minutes
	system time =       1.00 seconds =       0.02 minutes
	total time  =         79 seconds =       1.32 minutes

			-----------------------------------------
			 OPTKING 2.0: for geometry optimizations 
			  - R.A. King,  Bethel University        
			-----------------------------------------

	Previous internal coordinate definitions found.
	---Fragment 1 Geometry and Gradient---
	 CR         -0.0019079712        0.1269797434       -0.0279479838
	 O           1.9229675807        1.5266300770       -1.7440041808
	 O          -1.9768892013        2.0618936756        0.9541785915
	 F          -1.4862655498       -2.1666902593       -1.7183681939
	 F           1.5368788934       -1.2016729992        2.4597370958
	             0.0000119655       -0.0007954315        0.0001750765
	             0.0000123851       -0.0007940204        0.0001744313
	             0.0000114782       -0.0007939172        0.0001750634
	             0.0000120843       -0.0007938750        0.0001749683
	             0.0000117585       -0.0007939744        0.0001745169

	---Fragment 1 Intrafragment Coordinates---
	 - Coordinate -           - BOHR/RAD -       - ANG/DEG -
	 R(1,2)           =         2.934112	       1.552665
	 R(1,3)           =         2.934112	       1.552665
	 R(1,4)           =         3.212750	       1.700114
	 R(1,5)           =         3.212750	       1.700114
	 B(2,1,3)         =         1.899456	     108.830825
	 B(2,1,4)         =         1.913391	     109.629206
	 B(2,1,5)         =         1.913391	     109.629205
	 B(3,1,4)         =         1.913390	     109.629199
	 B(3,1,5)         =         1.913390	     109.629198
	 B(4,1,5)         =         1.910763	     109.478671

	Current energy   :     -1394.1193180382

	Energy change for the previous step:
		Projected    :        -0.0000000000
		Actual       :         0.0000000085

	Performing BFGS update.
	Previous computed or guess Hessian on step 1.
	Denominators (dg)(dq) or (dq)(dq) are very small.
	 Skipping Hessian update for step 12.
	Denominators (dg)(dq) or (dq)(dq) are very small.
	 Skipping Hessian update for step 11.
	Denominators (dg)(dq) or (dq)(dq) are very small.
	 Skipping Hessian update for step 10.
	Denominators (dg)(dq) or (dq)(dq) are very small.
	 Skipping Hessian update for step 9.
	Denominators (dg)(dq) or (dq)(dq) are very small.
	 Skipping Hessian update for step 8.
	Denominators (dg)(dq) or (dq)(dq) are very small.
	 Skipping Hessian update for step 7.
	Steps to be used in Hessian update: 6 5
	Taking RFO optimization step.
	Going to follow RFO solution 1.
	Using RFO vector 1.
	Norm of target step-size    0.00000
	Projected energy change by RFO approximation:        -0.0000000000

	Back-transformation to cartesian coordinates...
	Successfully converged to displaced geometry.

	--- Internal Coordinate Step in ANG or DEG, aJ/ANG or AJ/DEG ---
	 ---------------------------------------------------------------------------
	   Coordinate                Previous        Force       Change         New 
	   ----------                --------       ------       ------       ------
	    1 R(1,2)          =      1.552665    -0.000005    -0.000000     1.552665
	    2 R(1,3)          =      1.552665    -0.000005    -0.000000     1.552665
	    3 R(1,4)          =      1.700114     0.000003     0.000001     1.700114
	    4 R(1,5)          =      1.700114     0.000003     0.000001     1.700114
	    5 B(2,1,3)        =    108.830825    -0.000000    -0.000026   108.830799
	    6 B(2,1,4)        =    109.629206     0.000000     0.000027   109.629233
	    7 B(2,1,5)        =    109.629205     0.000000     0.000026   109.629231
	    8 B(3,1,4)        =    109.629199     0.000000     0.000034   109.629233
	    9 B(3,1,5)        =    109.629198     0.000000     0.000033   109.629231
	   10 B(4,1,5)        =    109.478671    -0.000000    -0.000092   109.478580
	 ---------------------------------------------------------------------------
	Successfully symmetrized geometry.

  ==> Convergence Check <==

  Measures of convergence in internal coordinates in au.
  Criteria marked as inactive (o), active & met (*), and active & unmet ( ).
  ---------------------------------------------------------------------------------------------
   Step     Total Energy     Delta E     MAX Force     RMS Force      MAX Disp      RMS Disp   
  ---------------------------------------------------------------------------------------------
    Convergence Criteria             o    2.00e-06 *    1.00e-06 *    6.00e-06 *    4.00e-06 *
  ---------------------------------------------------------------------------------------------
     13   -1394.11931804    8.54e-09 o    6.24e-07 *    3.51e-07 *    1.60e-06 *    8.66e-07 *  ~
  ---------------------------------------------------------------------------------------------


  **** Optimization is complete! (in 13 steps) ****

  ==> Optimization Summary <==

  Measures of convergence in internal coordinates in au.
  --------------------------------------------------------------------------------------------------------------- ~
   Step         Total Energy             Delta E       MAX Force       RMS Force        MAX Disp        RMS Disp  ~
  --------------------------------------------------------------------------------------------------------------- ~
      1   -1394.117558951897  -1394.117558951897      0.02130220      0.01133794      0.05696220      0.02150513  ~
      2   -1394.118693238698     -0.001134286801      0.01507763      0.00721487      0.01843606      0.00942580  ~
      3   -1394.119132769555     -0.000439530857      0.00788409      0.00388976      0.01817439      0.00925180  ~
      4   -1394.119296147830     -0.000163378275      0.00116599      0.00059955      0.00267682      0.00153427  ~
      5   -1394.119307880965     -0.000011733135      0.00050069      0.00024235      0.00311314      0.00113594  ~
      6   -1394.119316134713     -0.000008253748      0.00022786      0.00011290      0.00103156      0.00037616  ~
      7   -1394.119318267062     -0.000002132349      0.00016068      0.00007248      0.00007739      0.00003959  ~
      8   -1394.119318327752     -0.000000060690      0.00011370      0.00005167      0.00007081      0.00003336  ~
      9   -1394.119318255757      0.000000071995      0.00007079      0.00003250      0.00006044      0.00003087  ~
     10   -1394.119318159286      0.000000096471      0.00003436      0.00001609      0.00003735      0.00002164  ~
     11   -1394.119318083638      0.000000075648      0.00001198      0.00000584      0.00001807      0.00001038  ~
     12   -1394.119318046738      0.000000036899      0.00000311      0.00000158      0.00000640      0.00000344  ~
     13   -1394.119318038195      0.000000008543      0.00000062      0.00000035      0.00000160      0.00000087  ~
  --------------------------------------------------------------------------------------------------------------- ~

	Writing optimization data to binary file.
	Final energy is  -1394.1193180381949
	Final (previous) structure:
	Cartesian Geometry (in Angstrom)
	   CR    -0.0010096549   0.0671947861  -0.0147894360
	    O     1.0175906165   0.8078578427  -0.9228872641
	    O    -1.0461247092   1.0911071397   0.5049295635
	    F    -0.7864978549  -1.1465631033  -0.9093212842
	    F     0.8132812828  -0.6358979634   1.3016368102
	Saving final (previous) structure.
			--------------------------
			 OPTKING Finished Execution 
			--------------------------

    Final optimized geometry and variables:
    Molecular point group: c1
    Full point group: C1

    Geometry (in Angstrom), charge = 0, multiplicity = 1:

    CR          -0.001009654874     0.067194786410    -0.014789436104
    O            1.017590620539     0.807857845855    -0.922887267772
    O           -1.046124713343     1.091107143959     0.504929565528
    F           -0.786497857957    -1.146563107810    -0.909321287770
    F            0.813281285967    -0.635897965877     1.301636815355

	Removing binary optimization data file.
	Cleaning optimization helper files.

    Psi4 stopped on: Saturday, 10 July 2021 03:19PM
    Psi4 wall time for execution: 0:01:18.79

*** Psi4 exiting successfully. Buy a developer a beer!
