
    -----------------------------------------------------------------------
          Psi4: An Open-Source Ab Initio Electronic Structure Package
                               Psi4 1.3.2 release

                         Git: Rev {} zzzzzzz 


    R. M. Parrish, L. A. Burns, D. G. A. Smith, A. C. Simmonett,
    A. E. DePrince III, E. G. Hohenstein, U. Bozkaya, A. Yu. Sokolov,
    R. Di Remigio, R. M. Richard, J. F. Gonthier, A. M. James,
    H. R. McAlexander, A. Kumar, M. Saitow, X. Wang, B. P. Pritchard,
    P. Verma, H. F. Schaefer III, K. Patkowski, R. A. King, E. F. Valeev,
    F. A. Evangelista, J. M. Turney, T. D. Crawford, and C. D. Sherrill,
    J. Chem. Theory Comput. 13(7) pp 3185--3197 (2017).
    (doi: 10.1021/acs.jctc.7b00174)


                         Additional Contributions by
    P. Kraus, H. Kruse, M. H. Lechner, M. C. Schieber, R. A. Shaw,
    A. Alenaizan, R. Galvelis, Z. L. Glick, S. Lehtola, and J. P. Misiewicz

    -----------------------------------------------------------------------


    Psi4 started on: Saturday, 10 July 2021 02:57PM

    Process ID: 1698274
    Host:       thinkpad
    PSIDATADIR: /usr/share/psi4
    Memory:     500.0 MiB
    Threads:    4
    
  ==> Input File <==

--------------------------------------------------------------------------
memory 8 gb

molecule {
symmetry c1
Cr        0.48028725377749    0.32716919378518    0.12128381663197
O         1.51332165941332    1.03448648135578   -0.78955553051410
O        -0.57831537187616    1.32157128739802    0.65757817076212
F        -0.29602430869141   -0.85637252313759   -0.76598418135575
F         1.28459076737678   -0.35182443940140    1.41848772447575
}

set basis def2-TZVP
set geom_maxiter 250

# Use a (75,302) quadrature grid
set dft_radial_points 75
set dft_spherical_points 302

# Very tight geometry optimization
set g_convergence gau_verytight
# Increase allowed number of geometry optimization steps
set geom_maxiter 250

# Use the Hueckel type guess
set guess huckel

my_dft = {
    "name": "my lda",
    "x_functionals": {"lda_x": {}},
    "c_functionals": {"lda_c_pw": {}}
}
optimize('scf', dft_functional=my_dft)
--------------------------------------------------------------------------

  Memory set to   7.451 GiB by Python driver.
gradient() will perform analytic gradient computation.

*** tstart() called on thinkpad
*** at Sat Jul 10 14:57:57 2021

   => Loading Basis Set <=

    Name: DEF2-TZVP
    Role: ORBITAL
    Keyword: BASIS
    atoms 1   entry CR         line   872 file /usr/share/psi4/basis/def2-tzvp.gbs 
    atoms 2-3 entry O          line   189 file /usr/share/psi4/basis/def2-tzvp.gbs 
    atoms 4-5 entry F          line   222 file /usr/share/psi4/basis/def2-tzvp.gbs 


         ---------------------------------------------------------
                                   SCF
               by Justin Turney, Rob Parrish, Andy Simmonett
                          and Daniel G. A. Smith
                              RKS Reference
                        4 Threads,   7629 MiB Core
         ---------------------------------------------------------

  ==> Geometry <==

    Molecular point group: c1
    Full point group: C1

    Geometry (in Angstrom), charge = 0, multiplicity = 1:

       Center              X                  Y                   Z               Mass       
    ------------   -----------------  -----------------  -----------------  -----------------
         CR          -0.001007494106     0.066977222278    -0.014740872913    51.940506230000
         O            1.032026911530     0.774294509849    -0.925580220059    15.994914619570
         O           -1.059610119760     1.061379315891     0.521553481217    15.994914619570
         F           -0.777319056575    -1.116564494645    -0.902008870901    18.998403162730
         F            0.803296019493    -0.612016410908     1.282463034931    18.998403162730

  Running in c1 symmetry.

  Rotational constants: A =      0.15233  B =      0.13609  C =      0.12992 [cm^-1]
  Rotational constants: A =   4566.71939  B =   4079.72696  C =   3895.02954 [MHz]
  Nuclear repulsion =  355.181605515257786

  Charge       = 0
  Multiplicity = 1
  Electrons    = 58
  Nalpha       = 29
  Nbeta        = 29

  ==> Algorithm <==

  SCF Algorithm Type is DF.
  DIIS enabled.
  MOM disabled.
  Fractional occupation disabled.
  Guess Type is HUCKEL.
  Energy threshold   = 1.00e-08
  Density threshold  = 1.00e-08
  Integral threshold = 0.00e+00

  ==> Primary Basis <==

  Basis Set: DEF2-TZVP
    Blend: DEF2-TZVP
    Number of shells: 59
    Number of basis function: 169
    Number of Cartesian functions: 196
    Spherical Harmonics?: true
    Max angular momentum: 3

  ==> DFT Potential <==

   => Composite Functional: MY LDA <= 

    Slater exchange
    Perdew & Wang
    P. A. M. Dirac, Math. Proc. Cambridge Philos. Soc. 26, 376 (1930)
    F. Bloch, Z. Phys. 57, 545 (1929)
    J. P. Perdew and Y. Wang, Phys. Rev. B 45, 13244 (1992)

    Deriv               =              1
    GGA                 =          FALSE
    Meta                =          FALSE

    Exchange Hybrid     =          FALSE
    MP2 Hybrid          =          FALSE

   => Exchange Functionals <=

    1.0000         XC_lda_x

   => Correlation Functionals <=

    1.0000      XC_lda_c_pw

   => Molecular Quadrature <=

    Radial Scheme          =       TREUTLER
    Pruning Scheme         =           FLAT
    Nuclear Scheme         =       TREUTLER

    BS radius alpha        =              1
    Pruning alpha          =              1
    Radial Points          =             75
    Spherical Points       =            302
    Total Points           =         113250
    Total Blocks           =            920
    Max Points             =            256
    Max Functions          =            163

   => Loading Basis Set <=

    Name: (DEF2-TZVP AUX)
    Role: JKFIT
    Keyword: DF_BASIS_SCF
    atoms 1   entry CR         line  1731 file /usr/share/psi4/basis/def2-tzvp-jkfit.gbs 
    atoms 2-3 entry O          line   323 file /usr/share/psi4/basis/def2-tzvp-jkfit.gbs 
    atoms 4-5 entry F          line   383 file /usr/share/psi4/basis/def2-tzvp-jkfit.gbs 

  ==> Pre-Iterations <==

   -------------------------------------------------------
    Irrep   Nso     Nmo     Nalpha   Nbeta   Ndocc  Nsocc
   -------------------------------------------------------
     A        169     169       0       0       0       0
   -------------------------------------------------------
    Total     169     169      29      29      29       0
   -------------------------------------------------------

  ==> Integral Setup <==

  DFHelper Memory: AOs need 0.130 GiB; user supplied 5.494 GiB. Using in-core AOs.

  ==> MemDFJK: Density-Fitted J/K Matrices <==

    J tasked:                   Yes
    K tasked:                    No
    wK tasked:                   No
    OpenMP threads:               4
    Memory [MiB]:              5626
    Algorithm:                 Core
    Schwarz Cutoff:           1E-12
    Mask sparsity (%):       2.9341
    Fitting Condition:        1E-10

   => Auxiliary Basis Set <=

  Basis Set: (DEF2-TZVP AUX)
    Blend: DEF2-TZVP-JKFIT
    Number of shells: 158
    Number of basis function: 572
    Number of Cartesian functions: 749
    Spherical Harmonics?: true
    Max angular momentum: 6

  Cached 100.0% of DFT collocation blocks in 0.093 [GiB].

  Minimum eigenvalue in the overlap matrix is 1.9987387532E-03.
  Using Symmetric Orthogonalization.

  SCF Guess: Huckel guess via on-the-fly atomic UHF (doi:10.1021/acs.jctc.8b01089).

  ==> Iterations <==

                           Total Energy        Delta E     RMS |[F,P]|

   @DF-RKS iter   1: -1388.51899348829420   -1.38852e+03   1.57403e-02 DIIS
   @DF-RKS iter   2: -1362.66065297624618    2.58583e+01   5.19470e-02 DIIS
   @DF-RKS iter   3: -1384.23141159928855   -2.15708e+01   2.94461e-02 DIIS
   @DF-RKS iter   4: -1383.76713729469679    4.64274e-01   2.80253e-02 DIIS
   @DF-RKS iter   5: -1390.31191769008251   -6.54478e+00   2.79961e-03 DIIS
   @DF-RKS iter   6: -1390.35726817605382   -4.53505e-02   1.50362e-03 DIIS
   @DF-RKS iter   7: -1390.37637364969441   -1.91055e-02   4.89663e-04 DIIS
   @DF-RKS iter   8: -1390.37810538243730   -1.73173e-03   1.82865e-04 DIIS
   @DF-RKS iter   9: -1390.37835848058330   -2.53098e-04   4.41110e-05 DIIS
   @DF-RKS iter  10: -1390.37837088502420   -1.24044e-05   1.39097e-05 DIIS
   @DF-RKS iter  11: -1390.37837054467286    3.40351e-07   1.50053e-05 DIIS
   @DF-RKS iter  12: -1390.37837303765218   -2.49298e-06   1.13207e-06 DIIS
   @DF-RKS iter  13: -1390.37837304553523   -7.88305e-09   5.58801e-07 DIIS
   @DF-RKS iter  14: -1390.37837304781760   -2.28238e-09   2.67901e-07 DIIS
   @DF-RKS iter  15: -1390.37837304858635   -7.68750e-10   4.16323e-08 DIIS
   @DF-RKS iter  16: -1390.37837304859249   -6.13909e-12   3.03501e-08 DIIS
   @DF-RKS iter  17: -1390.37837304860045   -7.95808e-12   4.20521e-10 DIIS
  Energy and wave function converged.


  ==> Post-Iterations <==

    Orbital Energies [Eh]
    ---------------------

    Doubly Occupied:                                                      

       1A   -214.114470     2A    -24.410994     3A    -24.151154  
       4A    -24.151146     5A    -20.822900     6A    -20.822324  
       7A    -20.818013     8A    -18.704259     9A    -18.704259  
      10A     -2.892898    11A     -1.901405    12A     -1.901342  
      13A     -1.897859    14A     -1.106893    15A     -1.101133  
      16A     -0.899860    17A     -0.887276    18A     -0.493783  
      19A     -0.487956    20A     -0.471166    21A     -0.470210  
      22A     -0.465798    23A     -0.428952    24A     -0.424382  
      25A     -0.403534    26A     -0.382752    27A     -0.372500  
      28A     -0.371211    29A     -0.330145  

    Virtual:                                                              

      30A     -0.222139    31A     -0.204082    32A     -0.175738  
      33A     -0.138048    34A     -0.122395    35A     -0.019367  
      36A      0.098832    37A      0.098949    38A      0.100998  
      39A      0.106770    40A      0.106892    41A      0.150019  
      42A      0.157824    43A      0.159253    44A      0.165264  
      45A      0.383356    46A      0.393870    47A      0.397290  
      48A      0.447770    49A      0.452644    50A      0.491930  
      51A      0.491996    52A      0.492711    53A      0.501607  
      54A      0.510445    55A      0.524149    56A      0.533503  
      57A      0.564148    58A      0.609185    59A      0.650141  
      60A      0.665229    61A      0.679318    62A      0.770791  
      63A      0.841522    64A      0.980856    65A      0.984573  
      66A      1.136537    67A      1.171658    68A      1.200928  
      69A      1.255359    70A      1.305298    71A      1.335086  
      72A      1.443700    73A      1.450383    74A      1.472269  
      75A      1.473304    76A      1.536231    77A      1.654217  
      78A      1.668026    79A      1.702356    80A      1.768029  
      81A      1.794538    82A      1.889357    83A      1.890005  
      84A      1.940034    85A      1.956928    86A      2.063296  
      87A      2.067970    88A      2.071086    89A      2.221547  
      90A      2.252633    91A      2.284568    92A      2.310359  
      93A      2.391894    94A      2.414183    95A      2.487510  
      96A      2.563734    97A      2.575359    98A      2.623292  
      99A      2.704267   100A      2.763357   101A      2.814912  
     102A      2.839465   103A      2.903466   104A      2.923393  
     105A      2.958784   106A      3.013435   107A      3.047730  
     108A      3.135779   109A      3.138012   110A      3.141612  
     111A      3.165318   112A      3.663073   113A      3.695880  
     114A      3.913704   115A      3.923213   116A      4.194181  
     117A      4.234281   118A      4.922552   119A      4.929167  
     120A      4.937605   121A      4.937612   122A      4.940638  
     123A      4.944563   124A      4.968262   125A      4.986026  
     126A      5.224560   127A      5.226788   128A      5.242337  
     129A      5.271546   130A      5.772383   131A      5.860805  
     132A      6.016364   133A      6.046249   134A      6.101935  
     135A      6.125214   136A      6.240139   137A      6.302894  
     138A      6.351069   139A      6.441027   140A      6.661201  
     141A      6.664103   142A      6.664433   143A      6.672229  
     144A      6.677171   145A      6.677290   146A      6.677398  
     147A      6.678482   148A      6.695940   149A      6.706744  
     150A      6.733022   151A      6.737782   152A      6.865281  
     153A      6.874434   154A      6.910969   155A      6.983570  
     156A      8.037158   157A      8.058579   158A      8.102410  
     159A      8.112019   160A      8.133228   161A      8.198325  
     162A      8.305060   163A      8.316342   164A      8.625352  
     165A      8.680858   166A     43.324279   167A     43.346475  
     168A     56.682572   169A     56.775746  

    Final Occupation by Irrep:
              A 
    DOCC [    29 ]

  @DF-RKS Final Energy: -1390.37837304860045

   => Energetics <=

    Nuclear Repulsion Energy =            355.1816055152577860
    One-Electron Energy =               -2626.7385008579726673
    Two-Electron Energy =                 963.0861721933852095
    DFT Exchange-Correlation Energy =     -81.9076498992706092
    Empirical Dispersion Energy =           0.0000000000000000
    VV10 Nonlocal Energy =                  0.0000000000000000
    Total Energy =                      -1390.3783730486004515

Computation Completed


Properties will be evaluated at   0.000000,   0.000000,   0.000000 [a0]

Properties computed using the SCF density matrix

  Nuclear Dipole Moment: [e a0]
     X:    -0.0209      Y:     1.3901      Z:    -0.3060

  Electronic Dipole Moment: [e a0]
     X:     0.0227      Y:    -1.5081      Z:     0.3319

  Dipole Moment: [e a0]
     X:     0.0018      Y:    -0.1180      Z:     0.0260     Total:     0.1208

  Dipole Moment: [D]
     X:     0.0045      Y:    -0.2998      Z:     0.0660     Total:     0.3070


*** tstop() called on thinkpad at Sat Jul 10 14:58:04 2021
Module time:
	user time   =      17.60 seconds =       0.29 minutes
	system time =       0.24 seconds =       0.00 minutes
	total time  =          7 seconds =       0.12 minutes
Total time:
	user time   =      17.60 seconds =       0.29 minutes
	system time =       0.24 seconds =       0.00 minutes
	total time  =          7 seconds =       0.12 minutes

*** tstart() called on thinkpad
*** at Sat Jul 10 14:58:04 2021


         ------------------------------------------------------------
                                   SCF GRAD                          
                          Rob Parrish, Justin Turney,                
                       Andy Simmonett, and Alex Sokolov              
         ------------------------------------------------------------

  ==> Geometry <==

    Molecular point group: c1
    Full point group: C1

    Geometry (in Angstrom), charge = 0, multiplicity = 1:

       Center              X                  Y                   Z               Mass       
    ------------   -----------------  -----------------  -----------------  -----------------
         CR          -0.001007494106     0.066977222278    -0.014740872913    51.940506230000
         O            1.032026911530     0.774294509849    -0.925580220059    15.994914619570
         O           -1.059610119760     1.061379315891     0.521553481217    15.994914619570
         F           -0.777319056575    -1.116564494645    -0.902008870901    18.998403162730
         F            0.803296019493    -0.612016410908     1.282463034931    18.998403162730

  Nuclear repulsion =  355.181605515257786

  ==> Basis Set <==

  Basis Set: DEF2-TZVP
    Blend: DEF2-TZVP
    Number of shells: 59
    Number of basis function: 169
    Number of Cartesian functions: 196
    Spherical Harmonics?: true
    Max angular momentum: 3

  ==> DFJKGrad: Density-Fitted SCF Gradients <==

    Gradient:                    1
    J tasked:                  Yes
    K tasked:                   No
    wK tasked:                  No
    OpenMP threads:              4
    Integrals threads:           4
    Memory [MiB]:             5722
    Schwarz Cutoff:          0E+00
    Fitting Condition:       1E-10

   => Auxiliary Basis Set <=

  Basis Set: (DEF2-TZVP AUX)
    Blend: DEF2-TZVP-JKFIT
    Number of shells: 158
    Number of basis function: 572
    Number of Cartesian functions: 749
    Spherical Harmonics?: true
    Max angular momentum: 6

  ==> DFT Potential <==

   => Composite Functional: MY LDA <= 

    Slater exchange
    Perdew & Wang
    P. A. M. Dirac, Math. Proc. Cambridge Philos. Soc. 26, 376 (1930)
    F. Bloch, Z. Phys. 57, 545 (1929)
    J. P. Perdew and Y. Wang, Phys. Rev. B 45, 13244 (1992)

    Deriv               =              1
    GGA                 =          FALSE
    Meta                =          FALSE

    Exchange Hybrid     =          FALSE
    MP2 Hybrid          =          FALSE

   => Exchange Functionals <=

    1.0000         XC_lda_x

   => Correlation Functionals <=

    1.0000      XC_lda_c_pw

   => Molecular Quadrature <=

    Radial Scheme          =       TREUTLER
    Pruning Scheme         =           FLAT
    Nuclear Scheme         =       TREUTLER

    BS radius alpha        =              1
    Pruning alpha          =              1
    Radial Points          =             75
    Spherical Points       =            302
    Total Points           =         113250
    Total Blocks           =            920
    Max Points             =            256
    Max Functions          =            163


  -Total Gradient:
     Atom            X                  Y                   Z
    ------   -----------------  -----------------  -----------------
       1        0.000018849577    -0.001278912432     0.000281759597
       2       -0.000286367822    -0.008201283802     0.002101533247
       3        0.000534614416    -0.008313529732     0.001533364484
       4        0.006728581418     0.011079641172     0.007526935008
       5       -0.006995427984     0.006698883791    -0.011440267185


*** tstop() called on thinkpad at Sat Jul 10 14:58:07 2021
Module time:
	user time   =       6.87 seconds =       0.11 minutes
	system time =       0.10 seconds =       0.00 minutes
	total time  =          3 seconds =       0.05 minutes
Total time:
	user time   =      24.47 seconds =       0.41 minutes
	system time =       0.34 seconds =       0.01 minutes
	total time  =         10 seconds =       0.17 minutes

			-----------------------------------------
			 OPTKING 2.0: for geometry optimizations 
			  - R.A. King,  Bethel University        
			-----------------------------------------

	Internal coordinates to be generated automatically.
	Detected frag 1 with atoms:  1 2 3 4 5
	---Fragment 1 Bond Connectivity---
	 1 : 2 3 4 5
	 2 : 1
	 3 : 1
	 4 : 1
	 5 : 1

	---Fragment 1 Geometry and Gradient---
	 CR         -0.0019038879        0.1265686067       -0.0278562127
	 O           1.9502482169        1.4632045641       -1.7490931231
	 O          -2.0023729261        2.0057162223        0.9855932393
	 F          -1.4689201290       -2.1100010963       -1.7045497287
	 F           1.5180094745       -1.1565434009        2.4235039020
	             0.0000188496       -0.0012789124        0.0002817596
	            -0.0002863678       -0.0082012838        0.0021015332
	             0.0005346144       -0.0083135297        0.0015333645
	             0.0067285814        0.0110796412        0.0075269350
	            -0.0069954280        0.0066988838       -0.0114402672

	Previous optimization step data not found.  Starting new optimization.

	---Fragment 1 Intrafragment Coordinates---
	 - Coordinate -           - BOHR/RAD -       - ANG/DEG -
	 R(1,2)           =         2.925773	       1.548253
	 R(1,3)           =         2.925774	       1.548253
	 R(1,4)           =         3.156847	       1.670531
	 R(1,5)           =         3.156846	       1.670531
	 B(2,1,3)         =         1.946113	     111.504060
	 B(2,1,4)         =         1.897868	     108.739823
	 B(2,1,5)         =         1.897867	     108.739770
	 B(3,1,4)         =         1.897872	     108.740061
	 B(3,1,5)         =         1.897872	     108.740055
	 B(4,1,5)         =         1.926457	     110.377858

	Current energy   :     -1390.3783730486

	Generating empirical Hessian (Schlegel '84) for each fragment.
	Taking RFO optimization step.
	Going to follow RFO solution 1.
	Using RFO vector 1.
	Norm of target step-size    0.07185
	Projected energy change by RFO approximation:        -0.0018996441

	Back-transformation to cartesian coordinates...
	Successfully converged to displaced geometry.

	--- Internal Coordinate Step in ANG or DEG, aJ/ANG or AJ/DEG ---
	 ---------------------------------------------------------------------------
	   Coordinate                Previous        Force       Change         New 
	   ----------                --------       ------       ------       ------
	    1 R(1,2)          =      1.548253     0.042614     0.000996     1.549248
	    2 R(1,3)          =      1.548253     0.042612     0.000996     1.549248
	    3 R(1,4)          =      1.670531     0.123384     0.005893     1.676424
	    4 R(1,5)          =      1.670531     0.123385     0.005893     1.676424
	    5 B(2,1,3)        =    111.504060    -0.001217    -3.630952   107.873108
	    6 B(2,1,4)        =    108.739823     0.000277     0.812146   109.551969
	    7 B(2,1,5)        =    108.739770     0.000277     0.812194   109.551963
	    8 B(3,1,4)        =    108.740061     0.000277     0.811955   109.552015
	    9 B(3,1,5)        =    108.740055     0.000277     0.811969   109.552023
	   10 B(4,1,5)        =    110.377858     0.000107     0.331442   110.709300
	 ---------------------------------------------------------------------------
	Successfully symmetrized geometry.

  ==> Convergence Check <==

  Measures of convergence in internal coordinates in au.
  Criteria marked as inactive (o), active & met (*), and active & unmet ( ).
  --------------------------------------------------------------------------------------------- ~
   Step     Total Energy     Delta E     MAX Force     RMS Force      MAX Disp      RMS Disp    ~
  --------------------------------------------------------------------------------------------- ~
    Convergence Criteria             o    2.00e-06 *    1.00e-06 *    6.00e-06 *    4.00e-06 *  ~
  --------------------------------------------------------------------------------------------- ~
      1   -1390.37837305   -1.39e+03 o    1.60e-02      9.01e-03      6.34e-02      2.26e-02    ~
  ---------------------------------------------------------------------------------------------

	Writing optimization data to binary file.
	Structure for next step:
	Cartesian Geometry (in Angstrom)
	   CR    -0.0007638030   0.0508392731  -0.0111895796
	    O     1.0092479721   0.8009738690  -0.9152606443
	    O    -1.0375398078   1.0819006080   0.5008442496
	    F    -0.7814660703  -1.1334936888  -0.9046425600
	    F     0.8079079696  -0.6261499196   1.2919350867
			--------------------------
			 OPTKING Finished Execution 
			--------------------------

    Structure for next step:
    Molecular point group: c1
    Full point group: C1

    Geometry (in Angstrom), charge = 0, multiplicity = 1:

    CR          -0.000847099055     0.056362117571    -0.012404996376
    O            1.009164679962     0.806496716434    -0.916476064600
    O           -1.037623107953     1.087423456517     0.499628834878
    F           -0.781549369451    -1.127970848955    -0.905857980241
    F            0.807824676666    -0.620627077772     1.290719675077

gradient() will perform analytic gradient computation.

*** tstart() called on thinkpad
*** at Sat Jul 10 14:58:07 2021

   => Loading Basis Set <=

    Name: DEF2-TZVP
    Role: ORBITAL
    Keyword: BASIS
    atoms 1   entry CR         line   872 file /usr/share/psi4/basis/def2-tzvp.gbs 
    atoms 2-3 entry O          line   189 file /usr/share/psi4/basis/def2-tzvp.gbs 
    atoms 4-5 entry F          line   222 file /usr/share/psi4/basis/def2-tzvp.gbs 


         ---------------------------------------------------------
                                   SCF
               by Justin Turney, Rob Parrish, Andy Simmonett
                          and Daniel G. A. Smith
                              RKS Reference
                        4 Threads,   7629 MiB Core
         ---------------------------------------------------------

  ==> Geometry <==

    Molecular point group: c1
    Full point group: C1

    Geometry (in Angstrom), charge = 0, multiplicity = 1:

       Center              X                  Y                   Z               Mass       
    ------------   -----------------  -----------------  -----------------  -----------------
         CR          -0.000847099055     0.056362117571    -0.012404996376    51.940506230000
         O            1.009164679962     0.806496716434    -0.916476064600    15.994914619570
         O           -1.037623107953     1.087423456517     0.499628834878    15.994914619570
         F           -0.781549369451    -1.127970848955    -0.905857980241    18.998403162730
         F            0.807824676666    -0.620627077772     1.290719675077    18.998403162730

  Running in c1 symmetry.

  Rotational constants: A =      0.15203  B =      0.13767  C =      0.12676 [cm^-1]
  Rotational constants: A =   4557.61473  B =   4127.31994  C =   3800.18264 [MHz]
  Nuclear repulsion =  354.402500619022305

  Charge       = 0
  Multiplicity = 1
  Electrons    = 58
  Nalpha       = 29
  Nbeta        = 29

  ==> Algorithm <==

  SCF Algorithm Type is DF.
  DIIS enabled.
  MOM disabled.
  Fractional occupation disabled.
  Guess Type is READ.
  Energy threshold   = 1.00e-08
  Density threshold  = 1.00e-08
  Integral threshold = 0.00e+00

  ==> Primary Basis <==

  Basis Set: DEF2-TZVP
    Blend: DEF2-TZVP
    Number of shells: 59
    Number of basis function: 169
    Number of Cartesian functions: 196
    Spherical Harmonics?: true
    Max angular momentum: 3

  ==> DFT Potential <==

   => Composite Functional: MY LDA <= 

    Slater exchange
    Perdew & Wang
    P. A. M. Dirac, Math. Proc. Cambridge Philos. Soc. 26, 376 (1930)
    F. Bloch, Z. Phys. 57, 545 (1929)
    J. P. Perdew and Y. Wang, Phys. Rev. B 45, 13244 (1992)

    Deriv               =              1
    GGA                 =          FALSE
    Meta                =          FALSE

    Exchange Hybrid     =          FALSE
    MP2 Hybrid          =          FALSE

   => Exchange Functionals <=

    1.0000         XC_lda_x

   => Correlation Functionals <=

    1.0000      XC_lda_c_pw

   => Molecular Quadrature <=

    Radial Scheme          =       TREUTLER
    Pruning Scheme         =           FLAT
    Nuclear Scheme         =       TREUTLER

    BS radius alpha        =              1
    Pruning alpha          =              1
    Radial Points          =             75
    Spherical Points       =            302
    Total Points           =         113250
    Total Blocks           =            922
    Max Points             =            255
    Max Functions          =            162

   => Loading Basis Set <=

    Name: (DEF2-TZVP AUX)
    Role: JKFIT
    Keyword: DF_BASIS_SCF
    atoms 1   entry CR         line  1731 file /usr/share/psi4/basis/def2-tzvp-jkfit.gbs 
    atoms 2-3 entry O          line   323 file /usr/share/psi4/basis/def2-tzvp-jkfit.gbs 
    atoms 4-5 entry F          line   383 file /usr/share/psi4/basis/def2-tzvp-jkfit.gbs 

   => Loading Basis Set <=

    Name: DEF2-TZVP
    Role: ORBITAL
    Keyword: BASIS
    atoms 1   entry CR         line   872 file /usr/share/psi4/basis/def2-tzvp.gbs 
    atoms 2-3 entry O          line   189 file /usr/share/psi4/basis/def2-tzvp.gbs 
    atoms 4-5 entry F          line   222 file /usr/share/psi4/basis/def2-tzvp.gbs 

  Reading orbitals from file 180, no projection.

  ==> Pre-Iterations <==

   -------------------------------------------------------
    Irrep   Nso     Nmo     Nalpha   Nbeta   Ndocc  Nsocc
   -------------------------------------------------------
     A        169     169       0       0       0       0
   -------------------------------------------------------
    Total     169     169      29      29      29       0
   -------------------------------------------------------

  ==> Integral Setup <==

  DFHelper Memory: AOs need 0.130 GiB; user supplied 5.495 GiB. Using in-core AOs.

  ==> MemDFJK: Density-Fitted J/K Matrices <==

    J tasked:                   Yes
    K tasked:                    No
    wK tasked:                   No
    OpenMP threads:               4
    Memory [MiB]:              5626
    Algorithm:                 Core
    Schwarz Cutoff:           1E-12
    Mask sparsity (%):       3.0531
    Fitting Condition:        1E-10

   => Auxiliary Basis Set <=

  Basis Set: (DEF2-TZVP AUX)
    Blend: DEF2-TZVP-JKFIT
    Number of shells: 158
    Number of basis function: 572
    Number of Cartesian functions: 749
    Spherical Harmonics?: true
    Max angular momentum: 6

  Cached 100.0% of DFT collocation blocks in 0.093 [GiB].

  Minimum eigenvalue in the overlap matrix is 1.9352560383E-03.
  Using Symmetric Orthogonalization.

  SCF Guess: Orbitals guess was supplied from a previous computation.

  ==> Iterations <==

                           Total Energy        Delta E     RMS |[F,P]|

   @DF-RKS iter   0: -1390.37296898234536   -1.39037e+03   6.63557e-04 
   @DF-RKS iter   1: -1390.37862219229987   -5.65321e-03   2.55510e-04 DIIS
   @DF-RKS iter   2: -1390.34316700996010    3.54552e-02   2.12132e-03 DIIS
   @DF-RKS iter   3: -1390.37885864165332   -3.56916e-02   1.87871e-04 DIIS
   @DF-RKS iter   4: -1390.37918500900264   -3.26367e-04   4.50234e-05 DIIS
   @DF-RKS iter   5: -1390.37920301745135   -1.80084e-05   1.03039e-05 DIIS
   @DF-RKS iter   6: -1390.37920355005099   -5.32600e-07   5.30522e-06 DIIS
   @DF-RKS iter   7: -1390.37920372970643   -1.79655e-07   1.88654e-06 DIIS
   @DF-RKS iter   8: -1390.37920374613668   -1.64302e-08   1.31055e-06 DIIS
   @DF-RKS iter   9: -1390.37920376143802   -1.53013e-08   2.23369e-07 DIIS
   @DF-RKS iter  10: -1390.37920376181091   -3.72893e-10   8.07223e-09 DIIS
  Energy and wave function converged.


  ==> Post-Iterations <==

    Orbital Energies [Eh]
    ---------------------

    Doubly Occupied:                                                      

       1A   -214.115612     2A    -24.411679     3A    -24.149941  
       4A    -24.149934     5A    -20.823413     6A    -20.823052  
       7A    -20.819003     8A    -18.705263     9A    -18.705261  
      10A     -2.893049    11A     -1.902323    12A     -1.900953  
      13A     -1.897244    14A     -1.105430    15A     -1.099685  
      16A     -0.899408    17A     -0.888887    18A     -0.492762  
      19A     -0.486275    20A     -0.469796    21A     -0.468635  
      22A     -0.464432    23A     -0.428437    24A     -0.423341  
      25A     -0.404269    26A     -0.384300    27A     -0.372869  
      28A     -0.372137    29A     -0.328907  

    Virtual:                                                              

      30A     -0.220370    31A     -0.206343    32A     -0.175336  
      33A     -0.144178    34A     -0.120700    35A     -0.020627  
      36A      0.098400    37A      0.098618    38A      0.101942  
      39A      0.106434    40A      0.106472    41A      0.147970  
      42A      0.156681    43A      0.158442    44A      0.168357  
      45A      0.385309    46A      0.392904    47A      0.396385  
      48A      0.447750    49A      0.450718    50A      0.488352  
      51A      0.491375    52A      0.494613    53A      0.500020  
      54A      0.512504    55A      0.522770    56A      0.534035  
      57A      0.570137    58A      0.608469    59A      0.648836  
      60A      0.663668    61A      0.679212    62A      0.771776  
      63A      0.839839    64A      0.982496    65A      0.982818  
      66A      1.134038    67A      1.165284    68A      1.202476  
      69A      1.252811    70A      1.311785    71A      1.331562  
      72A      1.444596    73A      1.463177    74A      1.469028  
      75A      1.473147    76A      1.527473    77A      1.643469  
      78A      1.668902    79A      1.703748    80A      1.776926  
      81A      1.796142    82A      1.887586    83A      1.891841  
      84A      1.943356    85A      1.952681    86A      2.053559  
      87A      2.053948    88A      2.084131    89A      2.217659  
      90A      2.255102    91A      2.281078    92A      2.309584  
      93A      2.388744    94A      2.422659    95A      2.480499  
      96A      2.556720    97A      2.561170    98A      2.608941  
      99A      2.707719   100A      2.754977   101A      2.805797  
     102A      2.859104   103A      2.917676   104A      2.927000  
     105A      2.957469   106A      3.013024   107A      3.035020  
     108A      3.135421   109A      3.137555   110A      3.140573  
     111A      3.159720   112A      3.663175   113A      3.685413  
     114A      3.916583   115A      3.917786   116A      4.182158  
     117A      4.220797   118A      4.920894   119A      4.928154  
     120A      4.937134   121A      4.937174   122A      4.940198  
     123A      4.944163   124A      4.967173   125A      4.984324  
     126A      5.213223   127A      5.226676   128A      5.250333  
     129A      5.268070   130A      5.792989   131A      5.837016  
     132A      6.020024   133A      6.047374   134A      6.102796  
     135A      6.119707   136A      6.249054   137A      6.308029  
     138A      6.339836   139A      6.437466   140A      6.662980  
     141A      6.665127   142A      6.665394   143A      6.672846  
     144A      6.678684   145A      6.678733   146A      6.678830  
     147A      6.679791   148A      6.695670   149A      6.704217  
     150A      6.731332   151A      6.734555   152A      6.859141  
     153A      6.870544   154A      6.903964   155A      6.987809  
     156A      8.038035   157A      8.059603   158A      8.099266  
     159A      8.114008   160A      8.134588   161A      8.192557  
     162A      8.295363   163A      8.316089   164A      8.615952  
     165A      8.672770   166A     43.330550   167A     43.338414  
     168A     56.684720   169A     56.765831  

    Final Occupation by Irrep:
              A 
    DOCC [    29 ]

  @DF-RKS Final Energy: -1390.37920376181091

   => Energetics <=

    Nuclear Repulsion Energy =            354.4025006190223053
    One-Electron Energy =               -2625.1947160806048487
    Two-Electron Energy =                 962.3144499132974943
    DFT Exchange-Correlation Energy =     -81.9014382135257364
    Empirical Dispersion Energy =           0.0000000000000000
    VV10 Nonlocal Energy =                  0.0000000000000000
    Total Energy =                      -1390.3792037618109134

Computation Completed


Properties will be evaluated at   0.000000,   0.000000,   0.000000 [a0]

Properties computed using the SCF density matrix

  Nuclear Dipole Moment: [e a0]
     X:    -0.0218      Y:     1.4488      Z:    -0.3189

  Electronic Dipole Moment: [e a0]
     X:     0.0236      Y:    -1.5722      Z:     0.3460

  Dipole Moment: [e a0]
     X:     0.0019      Y:    -0.1234      Z:     0.0272     Total:     0.1263

  Dipole Moment: [D]
     X:     0.0047      Y:    -0.3136      Z:     0.0690     Total:     0.3211


*** tstop() called on thinkpad at Sat Jul 10 14:58:11 2021
Module time:
	user time   =      11.26 seconds =       0.19 minutes
	system time =       0.12 seconds =       0.00 minutes
	total time  =          4 seconds =       0.07 minutes
Total time:
	user time   =      35.81 seconds =       0.60 minutes
	system time =       0.47 seconds =       0.01 minutes
	total time  =         14 seconds =       0.23 minutes

*** tstart() called on thinkpad
*** at Sat Jul 10 14:58:11 2021


         ------------------------------------------------------------
                                   SCF GRAD                          
                          Rob Parrish, Justin Turney,                
                       Andy Simmonett, and Alex Sokolov              
         ------------------------------------------------------------

  ==> Geometry <==

    Molecular point group: c1
    Full point group: C1

    Geometry (in Angstrom), charge = 0, multiplicity = 1:

       Center              X                  Y                   Z               Mass       
    ------------   -----------------  -----------------  -----------------  -----------------
         CR          -0.000847099055     0.056362117571    -0.012404996376    51.940506230000
         O            1.009164679962     0.806496716434    -0.916476064600    15.994914619570
         O           -1.037623107953     1.087423456517     0.499628834878    15.994914619570
         F           -0.781549369451    -1.127970848955    -0.905857980241    18.998403162730
         F            0.807824676666    -0.620627077772     1.290719675077    18.998403162730

  Nuclear repulsion =  354.402500619022305

  ==> Basis Set <==

  Basis Set: DEF2-TZVP
    Blend: DEF2-TZVP
    Number of shells: 59
    Number of basis function: 169
    Number of Cartesian functions: 196
    Spherical Harmonics?: true
    Max angular momentum: 3

  ==> DFJKGrad: Density-Fitted SCF Gradients <==

    Gradient:                    1
    J tasked:                  Yes
    K tasked:                   No
    wK tasked:                  No
    OpenMP threads:              4
    Integrals threads:           4
    Memory [MiB]:             5722
    Schwarz Cutoff:          0E+00
    Fitting Condition:       1E-10

   => Auxiliary Basis Set <=

  Basis Set: (DEF2-TZVP AUX)
    Blend: DEF2-TZVP-JKFIT
    Number of shells: 158
    Number of basis function: 572
    Number of Cartesian functions: 749
    Spherical Harmonics?: true
    Max angular momentum: 6

  ==> DFT Potential <==

   => Composite Functional: MY LDA <= 

    Slater exchange
    Perdew & Wang
    P. A. M. Dirac, Math. Proc. Cambridge Philos. Soc. 26, 376 (1930)
    F. Bloch, Z. Phys. 57, 545 (1929)
    J. P. Perdew and Y. Wang, Phys. Rev. B 45, 13244 (1992)

    Deriv               =              1
    GGA                 =          FALSE
    Meta                =          FALSE

    Exchange Hybrid     =          FALSE
    MP2 Hybrid          =          FALSE

   => Exchange Functionals <=

    1.0000         XC_lda_x

   => Correlation Functionals <=

    1.0000      XC_lda_c_pw

   => Molecular Quadrature <=

    Radial Scheme          =       TREUTLER
    Pruning Scheme         =           FLAT
    Nuclear Scheme         =       TREUTLER

    BS radius alpha        =              1
    Pruning alpha          =              1
    Radial Points          =             75
    Spherical Points       =            302
    Total Points           =         113250
    Total Blocks           =            922
    Max Points             =            255
    Max Functions          =            162


  -Total Gradient:
     Atom            X                  Y                   Z
    ------   -----------------  -----------------  -----------------
       1        0.000171672644    -0.011425247388     0.002514727251
       2       -0.002404330267    -0.000493304963     0.001853642607
       3        0.002429078378    -0.001156586736    -0.001490478267
       4        0.005039426835     0.008136078610     0.005669710593
       5       -0.005234608972     0.004856524603    -0.008529435755


*** tstop() called on thinkpad at Sat Jul 10 14:58:14 2021
Module time:
	user time   =       6.85 seconds =       0.11 minutes
	system time =       0.07 seconds =       0.00 minutes
	total time  =          3 seconds =       0.05 minutes
Total time:
	user time   =      42.66 seconds =       0.71 minutes
	system time =       0.54 seconds =       0.01 minutes
	total time  =         17 seconds =       0.28 minutes

			-----------------------------------------
			 OPTKING 2.0: for geometry optimizations 
			  - R.A. King,  Bethel University        
			-----------------------------------------

	Previous internal coordinate definitions found.
	---Fragment 1 Geometry and Gradient---
	 CR         -0.0016007852        0.1065089661       -0.0234420457
	 O           1.9070448606        1.5240579151       -1.7318887626
	 O          -1.9608234955        2.0549325152        0.9441616623
	 F          -1.4769142618       -2.1315559820       -1.7118234912
	 F           1.5265673963       -1.1728152030        2.4391066906
	             0.0001716726       -0.0114252474        0.0025147273
	            -0.0024043303       -0.0004933050        0.0018536426
	             0.0024290784       -0.0011565867       -0.0014904783
	             0.0050394268        0.0081360786        0.0056697106
	            -0.0052346090        0.0048565246       -0.0085294358

	---Fragment 1 Intrafragment Coordinates---
	 - Coordinate -           - BOHR/RAD -       - ANG/DEG -
	 R(1,2)           =         2.927655	       1.549248
	 R(1,3)           =         2.927655	       1.549248
	 R(1,4)           =         3.167983	       1.676424
	 R(1,5)           =         3.167983	       1.676424
	 B(2,1,3)         =         1.882741	     107.873108
	 B(2,1,4)         =         1.912043	     109.551969
	 B(2,1,5)         =         1.912042	     109.551963
	 B(3,1,4)         =         1.912043	     109.552015
	 B(3,1,5)         =         1.912044	     109.552023
	 B(4,1,5)         =         1.932242	     110.709300

	Current energy   :     -1390.3792037618

	Energy change for the previous step:
		Projected    :        -0.0018996441
		Actual       :        -0.0008307132

	Performing BFGS update.
	Previous computed or guess Hessian on step 1.
	Steps to be used in Hessian update: 1
	Taking RFO optimization step.
	Going to follow RFO solution 1.
	Using RFO vector 1.
	Norm of target step-size    0.01607
	Projected energy change by RFO approximation:        -0.0002640938

	Back-transformation to cartesian coordinates...
	Successfully converged to displaced geometry.

	--- Internal Coordinate Step in ANG or DEG, aJ/ANG or AJ/DEG ---
	 ---------------------------------------------------------------------------
	   Coordinate                Previous        Force       Change         New 
	   ----------                --------       ------       ------       ------
	    1 R(1,2)          =      1.549248     0.023712     0.000731     1.549980
	    2 R(1,3)          =      1.549248     0.023711     0.000731     1.549980
	    3 R(1,4)          =      1.676424     0.091664     0.005468     1.681892
	    4 R(1,5)          =      1.676424     0.091664     0.005468     1.681892
	    5 B(2,1,3)        =    107.873108     0.000218     0.100848   107.973955
	    6 B(2,1,4)        =    109.551969    -0.000021     0.060270   109.612239
	    7 B(2,1,5)        =    109.551963    -0.000021     0.060282   109.612245
	    8 B(3,1,4)        =    109.552015    -0.000022     0.060201   109.612217
	    9 B(3,1,5)        =    109.552023    -0.000022     0.060197   109.612220
	   10 B(4,1,5)        =    110.709300    -0.000123    -0.330828   110.378472
	 ---------------------------------------------------------------------------
	Successfully symmetrized geometry.

  ==> Convergence Check <==

  Measures of convergence in internal coordinates in au.
  Criteria marked as inactive (o), active & met (*), and active & unmet ( ).
  ---------------------------------------------------------------------------------------------
   Step     Total Energy     Delta E     MAX Force     RMS Force      MAX Disp      RMS Disp   
  ---------------------------------------------------------------------------------------------
    Convergence Criteria             o    2.00e-06 *    1.00e-06 *    6.00e-06 *    4.00e-06 *
  ---------------------------------------------------------------------------------------------
      2   -1390.37920376   -8.31e-04 o    1.11e-02      5.25e-03      1.03e-02      5.08e-03    ~
  ---------------------------------------------------------------------------------------------

	Writing optimization data to binary file.
	Structure for next step:
	Cartesian Geometry (in Angstrom)
	   CR    -0.0008922834   0.0593977417  -0.0130734193
	    O     1.0102679755   0.8087198303  -0.9177879600
	    O    -1.0387976189   1.0899583154   0.4998932557
	    F    -0.7824892644  -1.1321862494  -0.9063795476
	    F     0.8088809713  -0.6242052750   1.2929571402
			--------------------------
			 OPTKING Finished Execution 
			--------------------------

    Structure for next step:
    Molecular point group: c1
    Full point group: C1

    Geometry (in Angstrom), charge = 0, multiplicity = 1:

    CR          -0.000881829868     0.058694786753    -0.012918628770
    O            1.010278433038     0.808016878339    -0.917633173033
    O           -1.038787169370     1.089255364582     0.500048048249
    F           -0.782478813879    -1.132889208946    -0.906224760519
    F            0.808891428088    -0.624908232584     1.293111935849

gradient() will perform analytic gradient computation.

*** tstart() called on thinkpad
*** at Sat Jul 10 14:58:14 2021

   => Loading Basis Set <=

    Name: DEF2-TZVP
    Role: ORBITAL
    Keyword: BASIS
    atoms 1   entry CR         line   872 file /usr/share/psi4/basis/def2-tzvp.gbs 
    atoms 2-3 entry O          line   189 file /usr/share/psi4/basis/def2-tzvp.gbs 
    atoms 4-5 entry F          line   222 file /usr/share/psi4/basis/def2-tzvp.gbs 


         ---------------------------------------------------------
                                   SCF
               by Justin Turney, Rob Parrish, Andy Simmonett
                          and Daniel G. A. Smith
                              RKS Reference
                        4 Threads,   7629 MiB Core
         ---------------------------------------------------------

  ==> Geometry <==

    Molecular point group: c1
    Full point group: C1

    Geometry (in Angstrom), charge = 0, multiplicity = 1:

       Center              X                  Y                   Z               Mass       
    ------------   -----------------  -----------------  -----------------  -----------------
         CR          -0.000881829868     0.058694786753    -0.012918628770    51.940506230000
         O            1.010278433038     0.808016878339    -0.917633173033    15.994914619570
         O           -1.038787169370     1.089255364582     0.500048048249    15.994914619570
         F           -0.782478813879    -1.132889208946    -0.906224760519    18.998403162730
         F            0.808891428088    -0.624908232584     1.293111935849    18.998403162730

  Running in c1 symmetry.

  Rotational constants: A =      0.15127  B =      0.13734  C =      0.12617 [cm^-1]
  Rotational constants: A =   4534.94652  B =   4117.45364  C =   3782.42905 [MHz]
  Nuclear repulsion =  353.728896848030502

  Charge       = 0
  Multiplicity = 1
  Electrons    = 58
  Nalpha       = 29
  Nbeta        = 29

  ==> Algorithm <==

  SCF Algorithm Type is DF.
  DIIS enabled.
  MOM disabled.
  Fractional occupation disabled.
  Guess Type is READ.
  Energy threshold   = 1.00e-08
  Density threshold  = 1.00e-08
  Integral threshold = 0.00e+00

  ==> Primary Basis <==

  Basis Set: DEF2-TZVP
    Blend: DEF2-TZVP
    Number of shells: 59
    Number of basis function: 169
    Number of Cartesian functions: 196
    Spherical Harmonics?: true
    Max angular momentum: 3

  ==> DFT Potential <==

   => Composite Functional: MY LDA <= 

    Slater exchange
    Perdew & Wang
    P. A. M. Dirac, Math. Proc. Cambridge Philos. Soc. 26, 376 (1930)
    F. Bloch, Z. Phys. 57, 545 (1929)
    J. P. Perdew and Y. Wang, Phys. Rev. B 45, 13244 (1992)

    Deriv               =              1
    GGA                 =          FALSE
    Meta                =          FALSE

    Exchange Hybrid     =          FALSE
    MP2 Hybrid          =          FALSE

   => Exchange Functionals <=

    1.0000         XC_lda_x

   => Correlation Functionals <=

    1.0000      XC_lda_c_pw

   => Molecular Quadrature <=

    Radial Scheme          =       TREUTLER
    Pruning Scheme         =           FLAT
    Nuclear Scheme         =       TREUTLER

    BS radius alpha        =              1
    Pruning alpha          =              1
    Radial Points          =             75
    Spherical Points       =            302
    Total Points           =         113250
    Total Blocks           =            922
    Max Points             =            256
    Max Functions          =            162

   => Loading Basis Set <=

    Name: (DEF2-TZVP AUX)
    Role: JKFIT
    Keyword: DF_BASIS_SCF
    atoms 1   entry CR         line  1731 file /usr/share/psi4/basis/def2-tzvp-jkfit.gbs 
    atoms 2-3 entry O          line   323 file /usr/share/psi4/basis/def2-tzvp-jkfit.gbs 
    atoms 4-5 entry F          line   383 file /usr/share/psi4/basis/def2-tzvp-jkfit.gbs 

   => Loading Basis Set <=

    Name: DEF2-TZVP
    Role: ORBITAL
    Keyword: BASIS
    atoms 1   entry CR         line   872 file /usr/share/psi4/basis/def2-tzvp.gbs 
    atoms 2-3 entry O          line   189 file /usr/share/psi4/basis/def2-tzvp.gbs 
    atoms 4-5 entry F          line   222 file /usr/share/psi4/basis/def2-tzvp.gbs 

  Reading orbitals from file 180, no projection.

  ==> Pre-Iterations <==

   -------------------------------------------------------
    Irrep   Nso     Nmo     Nalpha   Nbeta   Ndocc  Nsocc
   -------------------------------------------------------
     A        169     169       0       0       0       0
   -------------------------------------------------------
    Total     169     169      29      29      29       0
   -------------------------------------------------------

  ==> Integral Setup <==

  DFHelper Memory: AOs need 0.130 GiB; user supplied 5.495 GiB. Using in-core AOs.

  ==> MemDFJK: Density-Fitted J/K Matrices <==

    J tasked:                   Yes
    K tasked:                    No
    wK tasked:                   No
    OpenMP threads:               4
    Memory [MiB]:              5626
    Algorithm:                 Core
    Schwarz Cutoff:           1E-12
    Mask sparsity (%):       3.0951
    Fitting Condition:        1E-10

   => Auxiliary Basis Set <=

  Basis Set: (DEF2-TZVP AUX)
    Blend: DEF2-TZVP-JKFIT
    Number of shells: 158
    Number of basis function: 572
    Number of Cartesian functions: 749
    Spherical Harmonics?: true
    Max angular momentum: 6

  Cached 100.0% of DFT collocation blocks in 0.093 [GiB].

  Minimum eigenvalue in the overlap matrix is 1.9389017576E-03.
  Using Symmetric Orthogonalization.

  SCF Guess: Orbitals guess was supplied from a previous computation.

  ==> Iterations <==

                           Total Energy        Delta E     RMS |[F,P]|

   @DF-RKS iter   0: -1390.37585502947445   -1.39038e+03   1.49399e-04 
   @DF-RKS iter   1: -1390.37936234860263   -3.50732e-03   7.43789e-05 DIIS
   @DF-RKS iter   2: -1390.37576351668167    3.59883e-03   6.89625e-04 DIIS
   @DF-RKS iter   3: -1390.37939407576118   -3.63056e-03   3.84242e-05 DIIS
   @DF-RKS iter   4: -1390.37940783848217   -1.37627e-05   1.70318e-05 DIIS
   @DF-RKS iter   5: -1390.37941014128205   -2.30280e-06   1.39037e-06 DIIS
   @DF-RKS iter   6: -1390.37941015818978   -1.69077e-08   4.45374e-07 DIIS
   @DF-RKS iter   7: -1390.37941015910360   -9.13815e-10   2.76560e-07 DIIS
   @DF-RKS iter   8: -1390.37941015971660   -6.12999e-10   1.36768e-07 DIIS
   @DF-RKS iter   9: -1390.37941015987735   -1.60753e-10   2.41824e-08 DIIS
   @DF-RKS iter  10: -1390.37941015988054   -3.18323e-12   1.18525e-08 DIIS
   @DF-RKS iter  11: -1390.37941015988190   -1.36424e-12   2.56864e-09 DIIS
  Energy and wave function converged.


  ==> Post-Iterations <==

    Orbital Energies [Eh]
    ---------------------

    Doubly Occupied:                                                      

       1A   -214.116795     2A    -24.412647     3A    -24.149378  
       4A    -24.149371     5A    -20.824401     6A    -20.824056  
       7A    -20.819997     8A    -18.706224     9A    -18.706221  
      10A     -2.893582    11A     -1.902698    12A     -1.901533  
      13A     -1.897371    14A     -1.104331    15A     -1.098774  
      16A     -0.900144    17A     -0.889583    18A     -0.491735  
      19A     -0.485094    20A     -0.469100    21A     -0.467629  
      22A     -0.464058    23A     -0.428674    24A     -0.422496  
      25A     -0.404174    26A     -0.384892    27A     -0.373363  
      28A     -0.372574    29A     -0.329648  

    Virtual:                                                              

      30A     -0.221719    31A     -0.207321    32A     -0.176939  
      33A     -0.145641    34A     -0.121854    35A     -0.020719  
      36A      0.098348    37A      0.098682    38A      0.101734  
      39A      0.106374    40A      0.106430    41A      0.147863  
      42A      0.156286    43A      0.157928    44A      0.167956  
      45A      0.384828    46A      0.392634    47A      0.396188  
      48A      0.447427    49A      0.450560    50A      0.487352  
      51A      0.490992    52A      0.494051    53A      0.499619  
      54A      0.512368    55A      0.523071    56A      0.533935  
      57A      0.569457    58A      0.608902    59A      0.648558  
      60A      0.663453    61A      0.679366    62A      0.771585  
      63A      0.839715    64A      0.981639    65A      0.984377  
      66A      1.131081    67A      1.163749    68A      1.202208  
      69A      1.249759    70A      1.310777    71A      1.331329  
      72A      1.444010    73A      1.462267    74A      1.468389  
      75A      1.471662    76A      1.525538    77A      1.639640  
      78A      1.668883    79A      1.705339    80A      1.776971  
      81A      1.795298    82A      1.888546    83A      1.892099  
      84A      1.942978    85A      1.953223    86A      2.052012  
      87A      2.052390    88A      2.080785    89A      2.217783  
      90A      2.254695    91A      2.278930    92A      2.306672  
      93A      2.388093    94A      2.421647    95A      2.477510  
      96A      2.551653    97A      2.559726    98A      2.606367  
      99A      2.707404   100A      2.750867   101A      2.803553  
     102A      2.857712   103A      2.917386   104A      2.924731  
     105A      2.957289   106A      3.012200   107A      3.034070  
     108A      3.133368   109A      3.134500   110A      3.138250  
     111A      3.158090   112A      3.659524   113A      3.679785  
     114A      3.914659   115A      3.915158   116A      4.167932  
     117A      4.209246   118A      4.920081   119A      4.927406  
     120A      4.936442   121A      4.936478   122A      4.939475  
     123A      4.943341   124A      4.965834   125A      4.983243  
     126A      5.212194   127A      5.223978   128A      5.247814  
     129A      5.266133   130A      5.789862   131A      5.834386  
     132A      6.018923   133A      6.046371   134A      6.101004  
     135A      6.119492   136A      6.247253   137A      6.306194  
     138A      6.337716   139A      6.436212   140A      6.664149  
     141A      6.666057   142A      6.666560   143A      6.673862  
     144A      6.679763   145A      6.679809   146A      6.679899  
     147A      6.680829   148A      6.694083   149A      6.703213  
     150A      6.730571   151A      6.732848   152A      6.851867  
     153A      6.866938   154A      6.901941   155A      6.984968  
     156A      8.038669   157A      8.060205   158A      8.099376  
     159A      8.113574   160A      8.132171   161A      8.191115  
     162A      8.291725   163A      8.314141   164A      8.608036  
     165A      8.665268   166A     43.329064   167A     43.335688  
     168A     56.681925   169A     56.760938  

    Final Occupation by Irrep:
              A 
    DOCC [    29 ]

  @DF-RKS Final Energy: -1390.37941015988190

   => Energetics <=

    Nuclear Repulsion Energy =            353.7288968480305016
    One-Electron Energy =               -2623.8438399229562492
    Two-Electron Energy =                 961.6305087078912948
    DFT Exchange-Correlation Energy =     -81.8949757928475890
    Empirical Dispersion Energy =           0.0000000000000000
    VV10 Nonlocal Energy =                  0.0000000000000000
    Total Energy =                      -1390.3794101598818997

Computation Completed


Properties will be evaluated at   0.000000,   0.000000,   0.000000 [a0]

Properties computed using the SCF density matrix

  Nuclear Dipole Moment: [e a0]
     X:    -0.0218      Y:     1.4488      Z:    -0.3189

  Electronic Dipole Moment: [e a0]
     X:     0.0234      Y:    -1.5552      Z:     0.3423

  Dipole Moment: [e a0]
     X:     0.0016      Y:    -0.1064      Z:     0.0234     Total:     0.1089

  Dipole Moment: [D]
     X:     0.0041      Y:    -0.2704      Z:     0.0595     Total:     0.2769


*** tstop() called on thinkpad at Sat Jul 10 14:58:18 2021
Module time:
	user time   =      11.98 seconds =       0.20 minutes
	system time =       0.11 seconds =       0.00 minutes
	total time  =          4 seconds =       0.07 minutes
Total time:
	user time   =      54.69 seconds =       0.91 minutes
	system time =       0.65 seconds =       0.01 minutes
	total time  =         21 seconds =       0.35 minutes

*** tstart() called on thinkpad
*** at Sat Jul 10 14:58:18 2021


         ------------------------------------------------------------
                                   SCF GRAD                          
                          Rob Parrish, Justin Turney,                
                       Andy Simmonett, and Alex Sokolov              
         ------------------------------------------------------------

  ==> Geometry <==

    Molecular point group: c1
    Full point group: C1

    Geometry (in Angstrom), charge = 0, multiplicity = 1:

       Center              X                  Y                   Z               Mass       
    ------------   -----------------  -----------------  -----------------  -----------------
         CR          -0.000881829868     0.058694786753    -0.012918628770    51.940506230000
         O            1.010278433038     0.808016878339    -0.917633173033    15.994914619570
         O           -1.038787169370     1.089255364582     0.500048048249    15.994914619570
         F           -0.782478813879    -1.132889208946    -0.906224760519    18.998403162730
         F            0.808891428088    -0.624908232584     1.293111935849    18.998403162730

  Nuclear repulsion =  353.728896848030502

  ==> Basis Set <==

  Basis Set: DEF2-TZVP
    Blend: DEF2-TZVP
    Number of shells: 59
    Number of basis function: 169
    Number of Cartesian functions: 196
    Spherical Harmonics?: true
    Max angular momentum: 3

  ==> DFJKGrad: Density-Fitted SCF Gradients <==

    Gradient:                    1
    J tasked:                  Yes
    K tasked:                   No
    wK tasked:                  No
    OpenMP threads:              4
    Integrals threads:           4
    Memory [MiB]:             5722
    Schwarz Cutoff:          0E+00
    Fitting Condition:       1E-10

   => Auxiliary Basis Set <=

  Basis Set: (DEF2-TZVP AUX)
    Blend: DEF2-TZVP-JKFIT
    Number of shells: 158
    Number of basis function: 572
    Number of Cartesian functions: 749
    Spherical Harmonics?: true
    Max angular momentum: 6

  ==> DFT Potential <==

   => Composite Functional: MY LDA <= 

    Slater exchange
    Perdew & Wang
    P. A. M. Dirac, Math. Proc. Cambridge Philos. Soc. 26, 376 (1930)
    F. Bloch, Z. Phys. 57, 545 (1929)
    J. P. Perdew and Y. Wang, Phys. Rev. B 45, 13244 (1992)

    Deriv               =              1
    GGA                 =          FALSE
    Meta                =          FALSE

    Exchange Hybrid     =          FALSE
    MP2 Hybrid          =          FALSE

   => Exchange Functionals <=

    1.0000         XC_lda_x

   => Correlation Functionals <=

    1.0000      XC_lda_c_pw

   => Molecular Quadrature <=

    Radial Scheme          =       TREUTLER
    Pruning Scheme         =           FLAT
    Nuclear Scheme         =       TREUTLER

    BS radius alpha        =              1
    Pruning alpha          =              1
    Radial Points          =             75
    Spherical Points       =            302
    Total Points           =         113250
    Total Blocks           =            922
    Max Points             =            256
    Max Functions          =            162


  -Total Gradient:
     Atom            X                  Y                   Z
    ------   -----------------  -----------------  -----------------
       1        0.000115644560    -0.007685856060     0.001691619848
       2       -0.001497165727    -0.000087547236     0.001103516749
       3        0.001505905685    -0.000499689736    -0.000974215425
       4        0.003308883592     0.005174831910     0.003755995051
       5       -0.003432137735     0.003023073753    -0.005560368169


*** tstop() called on thinkpad at Sat Jul 10 14:58:21 2021
Module time:
	user time   =       6.82 seconds =       0.11 minutes
	system time =       0.07 seconds =       0.00 minutes
	total time  =          3 seconds =       0.05 minutes
Total time:
	user time   =      61.52 seconds =       1.03 minutes
	system time =       0.72 seconds =       0.01 minutes
	total time  =         24 seconds =       0.40 minutes

			-----------------------------------------
			 OPTKING 2.0: for geometry optimizations 
			  - R.A. King,  Bethel University        
			-----------------------------------------

	Previous internal coordinate definitions found.
	---Fragment 1 Geometry and Gradient---
	 CR         -0.0016664169        0.1109170720       -0.0244126703
	 O           1.9091495489        1.5269306048       -1.7340753807
	 O          -1.9630232527        2.0583943197        0.9449538608
	 F          -1.4786706572       -2.1408503354       -1.7125166055
	 F           1.5285832643       -1.1809054131        2.4436274083
	             0.0001156446       -0.0076858561        0.0016916198
	            -0.0014971657       -0.0000875472        0.0011035167
	             0.0015059057       -0.0004996897       -0.0009742154
	             0.0033088836        0.0051748319        0.0037559951
	            -0.0034321377        0.0030230738       -0.0055603682

	---Fragment 1 Intrafragment Coordinates---
	 - Coordinate -           - BOHR/RAD -       - ANG/DEG -
	 R(1,2)           =         2.929037	       1.549980
	 R(1,3)           =         2.929037	       1.549980
	 R(1,4)           =         3.178316	       1.681892
	 R(1,5)           =         3.178316	       1.681892
	 B(2,1,3)         =         1.884501	     107.973955
	 B(2,1,4)         =         1.913094	     109.612239
	 B(2,1,5)         =         1.913095	     109.612245
	 B(3,1,4)         =         1.913094	     109.612217
	 B(3,1,5)         =         1.913094	     109.612220
	 B(4,1,5)         =         1.926468	     110.378472

	Current energy   :     -1390.3794101599

	Energy change for the previous step:
		Projected    :        -0.0002640938
		Actual       :        -0.0002063981
	Energy ratio indicates good step: Trust radius increased to 1.000e+00.


	Performing BFGS update.
	Previous computed or guess Hessian on step 1.
	Steps to be used in Hessian update: 2 1
	Taking RFO optimization step.
	Going to follow RFO solution 1.
	Using RFO vector 1.
	Norm of target step-size    0.02750
	Projected energy change by RFO approximation:        -0.0003027202

	Back-transformation to cartesian coordinates...
	Successfully converged to displaced geometry.

	--- Internal Coordinate Step in ANG or DEG, aJ/ANG or AJ/DEG ---
	 ---------------------------------------------------------------------------
	   Coordinate                Previous        Force       Change         New 
	   ----------                --------       ------       ------       ------
	    1 R(1,2)          =      1.549980     0.013628     0.001174     1.551154
	    2 R(1,3)          =      1.549980     0.013627     0.001174     1.551154
	    3 R(1,4)          =      1.681892     0.059382     0.009602     1.691494
	    4 R(1,5)          =      1.681892     0.059383     0.009602     1.691494
	    5 B(2,1,3)        =    107.973955     0.000164     0.374264   108.348219
	    6 B(2,1,4)        =    109.612239    -0.000026     0.006435   109.618674
	    7 B(2,1,5)        =    109.612245    -0.000026     0.006439   109.618683
	    8 B(3,1,4)        =    109.612217    -0.000026     0.006427   109.618644
	    9 B(3,1,5)        =    109.612220    -0.000026     0.006425   109.618645
	   10 B(4,1,5)        =    110.378472    -0.000056    -0.385705   109.992766
	 ---------------------------------------------------------------------------
	Successfully symmetrized geometry.

  ==> Convergence Check <==

  Measures of convergence in internal coordinates in au.
  Criteria marked as inactive (o), active & met (*), and active & unmet ( ).
  ---------------------------------------------------------------------------------------------
   Step     Total Energy     Delta E     MAX Force     RMS Force      MAX Disp      RMS Disp   
  ---------------------------------------------------------------------------------------------
    Convergence Criteria             o    2.00e-06 *    1.00e-06 *    6.00e-06 *    4.00e-06 *
  ---------------------------------------------------------------------------------------------
      3   -1390.37941016   -2.06e-04 o    7.21e-03      3.39e-03      1.81e-02      8.70e-03    ~
  ---------------------------------------------------------------------------------------------

	Writing optimization data to binary file.
	Structure for next step:
	Cartesian Geometry (in Angstrom)
	   CR    -0.0009613900   0.0639925566  -0.0140847008
	    O     1.0134537954   0.8095426234  -0.9202832199
	    O    -1.0420215555   1.0916607093   0.5018327919
	    F    -0.7850748215  -1.1383544086  -0.9088926654
	    F     0.8116260196  -0.6286718933   1.2978112161
			--------------------------
			 OPTKING Finished Execution 
			--------------------------

    Structure for next step:
    Molecular point group: c1
    Full point group: C1

    Geometry (in Angstrom), charge = 0, multiplicity = 1:

    CR          -0.000941348486     0.062658049382    -0.013790968622
    O            1.013473840844     0.808208119104    -0.919989491277
    O           -1.042001518144     1.090326206122     0.502126526178
    F           -0.785054783105    -1.139688920611    -0.908598936697
    F            0.811646064240    -0.630006403286     1.298104953477

gradient() will perform analytic gradient computation.

*** tstart() called on thinkpad
*** at Sat Jul 10 14:58:21 2021

   => Loading Basis Set <=

    Name: DEF2-TZVP
    Role: ORBITAL
    Keyword: BASIS
    atoms 1   entry CR         line   872 file /usr/share/psi4/basis/def2-tzvp.gbs 
    atoms 2-3 entry O          line   189 file /usr/share/psi4/basis/def2-tzvp.gbs 
    atoms 4-5 entry F          line   222 file /usr/share/psi4/basis/def2-tzvp.gbs 


         ---------------------------------------------------------
                                   SCF
               by Justin Turney, Rob Parrish, Andy Simmonett
                          and Daniel G. A. Smith
                              RKS Reference
                        4 Threads,   7629 MiB Core
         ---------------------------------------------------------

  ==> Geometry <==

    Molecular point group: c1
    Full point group: C1

    Geometry (in Angstrom), charge = 0, multiplicity = 1:

       Center              X                  Y                   Z               Mass       
    ------------   -----------------  -----------------  -----------------  -----------------
         CR          -0.000941348486     0.062658049382    -0.013790968622    51.940506230000
         O            1.013473840844     0.808208119104    -0.919989491277    15.994914619570
         O           -1.042001518144     1.090326206122     0.502126526178    15.994914619570
         F           -0.785054783105    -1.139688920611    -0.908598936697    18.998403162730
         F            0.811646064240    -0.630006403286     1.298104953477    18.998403162730

  Running in c1 symmetry.

  Rotational constants: A =      0.15019  B =      0.13645  C =      0.12526 [cm^-1]
  Rotational constants: A =   4502.64183  B =   4090.74710  C =   3755.14815 [MHz]
  Nuclear repulsion =  352.567216931172823

  Charge       = 0
  Multiplicity = 1
  Electrons    = 58
  Nalpha       = 29
  Nbeta        = 29

  ==> Algorithm <==

  SCF Algorithm Type is DF.
  DIIS enabled.
  MOM disabled.
  Fractional occupation disabled.
  Guess Type is READ.
  Energy threshold   = 1.00e-08
  Density threshold  = 1.00e-08
  Integral threshold = 0.00e+00

  ==> Primary Basis <==

  Basis Set: DEF2-TZVP
    Blend: DEF2-TZVP
    Number of shells: 59
    Number of basis function: 169
    Number of Cartesian functions: 196
    Spherical Harmonics?: true
    Max angular momentum: 3

  ==> DFT Potential <==

   => Composite Functional: MY LDA <= 

    Slater exchange
    Perdew & Wang
    P. A. M. Dirac, Math. Proc. Cambridge Philos. Soc. 26, 376 (1930)
    F. Bloch, Z. Phys. 57, 545 (1929)
    J. P. Perdew and Y. Wang, Phys. Rev. B 45, 13244 (1992)

    Deriv               =              1
    GGA                 =          FALSE
    Meta                =          FALSE

    Exchange Hybrid     =          FALSE
    MP2 Hybrid          =          FALSE

   => Exchange Functionals <=

    1.0000         XC_lda_x

   => Correlation Functionals <=

    1.0000      XC_lda_c_pw

   => Molecular Quadrature <=

    Radial Scheme          =       TREUTLER
    Pruning Scheme         =           FLAT
    Nuclear Scheme         =       TREUTLER

    BS radius alpha        =              1
    Pruning alpha          =              1
    Radial Points          =             75
    Spherical Points       =            302
    Total Points           =         113250
    Total Blocks           =            921
    Max Points             =            256
    Max Functions          =            162

   => Loading Basis Set <=

    Name: (DEF2-TZVP AUX)
    Role: JKFIT
    Keyword: DF_BASIS_SCF
    atoms 1   entry CR         line  1731 file /usr/share/psi4/basis/def2-tzvp-jkfit.gbs 
    atoms 2-3 entry O          line   323 file /usr/share/psi4/basis/def2-tzvp-jkfit.gbs 
    atoms 4-5 entry F          line   383 file /usr/share/psi4/basis/def2-tzvp-jkfit.gbs 

   => Loading Basis Set <=

    Name: DEF2-TZVP
    Role: ORBITAL
    Keyword: BASIS
    atoms 1   entry CR         line   872 file /usr/share/psi4/basis/def2-tzvp.gbs 
    atoms 2-3 entry O          line   189 file /usr/share/psi4/basis/def2-tzvp.gbs 
    atoms 4-5 entry F          line   222 file /usr/share/psi4/basis/def2-tzvp.gbs 

  Reading orbitals from file 180, no projection.

  ==> Pre-Iterations <==

   -------------------------------------------------------
    Irrep   Nso     Nmo     Nalpha   Nbeta   Ndocc  Nsocc
   -------------------------------------------------------
     A        169     169       0       0       0       0
   -------------------------------------------------------
    Total     169     169      29      29      29       0
   -------------------------------------------------------

  ==> Integral Setup <==

  DFHelper Memory: AOs need 0.129 GiB; user supplied 5.495 GiB. Using in-core AOs.

  ==> MemDFJK: Density-Fitted J/K Matrices <==

    J tasked:                   Yes
    K tasked:                    No
    wK tasked:                   No
    OpenMP threads:               4
    Memory [MiB]:              5626
    Algorithm:                 Core
    Schwarz Cutoff:           1E-12
    Mask sparsity (%):       3.1722
    Fitting Condition:        1E-10

   => Auxiliary Basis Set <=

  Basis Set: (DEF2-TZVP AUX)
    Blend: DEF2-TZVP-JKFIT
    Number of shells: 158
    Number of basis function: 572
    Number of Cartesian functions: 749
    Spherical Harmonics?: true
    Max angular momentum: 6

  Cached 100.0% of DFT collocation blocks in 0.093 [GiB].

  Minimum eigenvalue in the overlap matrix is 1.9509261422E-03.
  Using Symmetric Orthogonalization.

  SCF Guess: Orbitals guess was supplied from a previous computation.

  ==> Iterations <==

                           Total Energy        Delta E     RMS |[F,P]|

   @DF-RKS iter   0: -1390.37365468731855   -1.39037e+03   2.58149e-04 
   @DF-RKS iter   1: -1390.37941521191760   -5.76052e-03   1.31102e-04 DIIS
   @DF-RKS iter   2: -1390.36838438268933    1.10308e-02   1.20339e-03 DIIS
   @DF-RKS iter   3: -1390.37951677894034   -1.11324e-02   6.47919e-05 DIIS
   @DF-RKS iter   4: -1390.37955683380505   -4.00549e-05   2.72034e-05 DIIS
   @DF-RKS iter   5: -1390.37956284374604   -6.00994e-06   2.11183e-06 DIIS
   @DF-RKS iter   6: -1390.37956287226552   -2.85195e-08   1.24601e-06 DIIS
   @DF-RKS iter   7: -1390.37956288249870   -1.02332e-08   4.27112e-07 DIIS
   @DF-RKS iter   8: -1390.37956288318833   -6.89624e-10   2.74794e-07 DIIS
   @DF-RKS iter   9: -1390.37956288392002   -7.31688e-10   6.90347e-08 DIIS
   @DF-RKS iter  10: -1390.37956288395389   -3.38787e-11   9.41694e-09 DIIS
  Energy and wave function converged.


  ==> Post-Iterations <==

    Orbital Energies [Eh]
    ---------------------

    Doubly Occupied:                                                      

       1A   -214.118802     2A    -24.414296     3A    -24.148397  
       4A    -24.148390     5A    -20.826093     6A    -20.825759  
       7A    -20.821677     8A    -18.707880     9A    -18.707878  
      10A     -2.894512    11A     -1.903274    12A     -1.902592  
      13A     -1.897661    14A     -1.102436    15A     -1.097151  
      16A     -0.901469    17A     -0.890742    18A     -0.489877  
      19A     -0.483254    20A     -0.467674    21A     -0.466100  
      22A     -0.463428    23A     -0.429104    24A     -0.421135  
      25A     -0.403939    26A     -0.385842    27A     -0.374102  
      28A     -0.373247    29A     -0.331046  

    Virtual:                                                              

      30A     -0.224118    31A     -0.208897    32A     -0.179926  
      33A     -0.147752    34A     -0.124013    35A     -0.020870  
      36A      0.098265    37A      0.098756    38A      0.101332  
      39A      0.106246    40A      0.106386    41A      0.147565  
      42A      0.155676    43A      0.157220    44A      0.167122  
      45A      0.384063    46A      0.392301    47A      0.395769  
      48A      0.446786    49A      0.450409    50A      0.485890  
      51A      0.490409    52A      0.492714    53A      0.498995  
      54A      0.511908    55A      0.523732    56A      0.533926  
      57A      0.568042    58A      0.609199    59A      0.648163  
      60A      0.663382    61A      0.679573    62A      0.771307  
      63A      0.839503    64A      0.980375    65A      0.986706  
      66A      1.126004    67A      1.161284    68A      1.201604  
      69A      1.244763    70A      1.308635    71A      1.331138  
      72A      1.443140    73A      1.461370    74A      1.466935  
      75A      1.467831    76A      1.522926    77A      1.634138  
      78A      1.668563    79A      1.708727    80A      1.776966  
      81A      1.794118    82A      1.890244    83A      1.892489  
      84A      1.942120    85A      1.953955    86A      2.049493  
      87A      2.050083    88A      2.074684    89A      2.217864  
      90A      2.253579    91A      2.275429    92A      2.301355  
      93A      2.387045    94A      2.419357    95A      2.471243  
      96A      2.544170    97A      2.557428    98A      2.602381  
      99A      2.707051   100A      2.744564   101A      2.800621  
     102A      2.854421   103A      2.917364   104A      2.919226  
     105A      2.956701   106A      3.011048   107A      3.033095  
     108A      3.126728   109A      3.132829   110A      3.134205  
     111A      3.155603   112A      3.652121   113A      3.669746  
     114A      3.910321   115A      3.911655   116A      4.144480  
     117A      4.188615   118A      4.918730   119A      4.926135  
     120A      4.935232   121A      4.935255   122A      4.938209  
     123A      4.941920   124A      4.963724   125A      4.981440  
     126A      5.211995   127A      5.219280   128A      5.241901  
     129A      5.263052   130A      5.783399   131A      5.831363  
     132A      6.016789   133A      6.044543   134A      6.098254  
     135A      6.119195   136A      6.243444   137A      6.302956  
     138A      6.334739   139A      6.434468   140A      6.666177  
     141A      6.667686   142A      6.668632   143A      6.675702  
     144A      6.681634   145A      6.681677   146A      6.681750  
     147A      6.682639   148A      6.691829   149A      6.701729  
     150A      6.729052   151A      6.730274   152A      6.839554  
     153A      6.860472   154A      6.899396   155A      6.979628  
     156A      8.039743   157A      8.061158   158A      8.099632  
     159A      8.112864   160A      8.128329   161A      8.188497  
     162A      8.286550   163A      8.309765   164A      8.594969  
     165A      8.651744   166A     43.327429   167A     43.330149  
     168A     56.676529   169A     56.752717  

    Final Occupation by Irrep:
              A 
    DOCC [    29 ]

  @DF-RKS Final Energy: -1390.37956288395389

   => Energetics <=

    Nuclear Repulsion Energy =            352.5672169311728226
    One-Electron Energy =               -2621.5138581506835180
    Two-Electron Energy =                 960.4510481887126616
    DFT Exchange-Correlation Energy =     -81.8839698531559179
    Empirical Dispersion Energy =           0.0000000000000000
    VV10 Nonlocal Energy =                  0.0000000000000000
    Total Energy =                      -1390.3795628839538949

Computation Completed


Properties will be evaluated at   0.000000,   0.000000,   0.000000 [a0]

Properties computed using the SCF density matrix

  Nuclear Dipole Moment: [e a0]
     X:    -0.0217      Y:     1.4453      Z:    -0.3181

  Electronic Dipole Moment: [e a0]
     X:     0.0229      Y:    -1.5231      Z:     0.3352

  Dipole Moment: [e a0]
     X:     0.0012      Y:    -0.0778      Z:     0.0171     Total:     0.0797

  Dipole Moment: [D]
     X:     0.0030      Y:    -0.1978      Z:     0.0435     Total:     0.2026


*** tstop() called on thinkpad at Sat Jul 10 14:58:25 2021
Module time:
	user time   =      11.33 seconds =       0.19 minutes
	system time =       0.11 seconds =       0.00 minutes
	total time  =          4 seconds =       0.07 minutes
Total time:
	user time   =      72.90 seconds =       1.21 minutes
	system time =       0.83 seconds =       0.01 minutes
	total time  =         28 seconds =       0.47 minutes

*** tstart() called on thinkpad
*** at Sat Jul 10 14:58:25 2021


         ------------------------------------------------------------
                                   SCF GRAD                          
                          Rob Parrish, Justin Turney,                
                       Andy Simmonett, and Alex Sokolov              
         ------------------------------------------------------------

  ==> Geometry <==

    Molecular point group: c1
    Full point group: C1

    Geometry (in Angstrom), charge = 0, multiplicity = 1:

[...]

   => Loading Basis Set <=

    Name: DEF2-TZVP
    Role: ORBITAL
    Keyword: BASIS
    atoms 1   entry CR         line   872 file /usr/share/psi4/basis/def2-tzvp.gbs 
    atoms 2-3 entry O          line   189 file /usr/share/psi4/basis/def2-tzvp.gbs 
    atoms 4-5 entry F          line   222 file /usr/share/psi4/basis/def2-tzvp.gbs 

  Reading orbitals from file 180, no projection.

  ==> Pre-Iterations <==

   -------------------------------------------------------
    Irrep   Nso     Nmo     Nalpha   Nbeta   Ndocc  Nsocc
   -------------------------------------------------------
     A        169     169       0       0       0       0
   -------------------------------------------------------
    Total     169     169      29      29      29       0
   -------------------------------------------------------

  ==> Integral Setup <==

  DFHelper Memory: AOs need 0.129 GiB; user supplied 5.495 GiB. Using in-core AOs.

  ==> MemDFJK: Density-Fitted J/K Matrices <==

    J tasked:                   Yes
    K tasked:                    No
    wK tasked:                   No
    OpenMP threads:               4
    Memory [MiB]:              5626
    Algorithm:                 Core
    Schwarz Cutoff:           1E-12
    Mask sparsity (%):       3.1932
    Fitting Condition:        1E-10

   => Auxiliary Basis Set <=

  Basis Set: (DEF2-TZVP AUX)
    Blend: DEF2-TZVP-JKFIT
    Number of shells: 158
    Number of basis function: 572
    Number of Cartesian functions: 749
    Spherical Harmonics?: true
    Max angular momentum: 6

  Cached 100.0% of DFT collocation blocks in 0.093 [GiB].

  Minimum eigenvalue in the overlap matrix is 1.9509006750E-03.
  Using Symmetric Orthogonalization.

  SCF Guess: Orbitals guess was supplied from a previous computation.

  ==> Iterations <==

                           Total Energy        Delta E     RMS |[F,P]|

   @DF-RKS iter   0: -1390.37956835920954   -1.39038e+03   1.48590e-07 
   @DF-RKS iter   1: -1390.37956598957794    2.36963e-06   7.42046e-08 DIIS
   @DF-RKS iter   2: -1390.37956598730375    2.27419e-09   4.63520e-07 DIIS
   @DF-RKS iter   3: -1390.37956598958067   -2.27692e-09   8.48595e-08 DIIS
   @DF-RKS iter   4: -1390.37956598962683   -4.61569e-11   3.56146e-08 DIIS
   @DF-RKS iter   5: -1390.37956598963365   -6.82121e-12   2.22384e-08 DIIS
   @DF-RKS iter   6: -1390.37956598964001   -6.36646e-12   1.85826e-09 DIIS
  Energy and wave function converged.


  ==> Post-Iterations <==

    Orbital Energies [Eh]
    ---------------------

    Doubly Occupied:                                                      

       1A   -214.118897     2A    -24.414360     3A    -24.148195  
       4A    -24.148188     5A    -20.826154     6A    -20.825822  
       7A    -20.821755     8A    -18.708034     9A    -18.708032  
      10A     -2.894559    11A     -1.903284    12A     -1.902714  
      13A     -1.897636    14A     -1.102193    15A     -1.096878  
      16A     -0.901618    17A     -0.890893    18A     -0.489573  
      19A     -0.483186    20A     -0.467363    21A     -0.466054  
      22A     -0.463282    23A     -0.429162    24A     -0.421087  
      25A     -0.403942    26A     -0.385954    27A     -0.374199  
      28A     -0.373214    29A     -0.331172  

    Virtual:                                                              

      30A     -0.224113    31A     -0.208935    32A     -0.180267  
      33A     -0.147737    34A     -0.124051    35A     -0.020948  
      36A      0.098255    37A      0.098698    38A      0.101361  
      39A      0.106269    40A      0.106308    41A      0.147255  
      42A      0.155642    43A      0.157447    44A      0.167157  
      45A      0.384191    46A      0.392424    47A      0.395650  
      48A      0.446624    49A      0.450356    50A      0.485929  
      51A      0.490377    52A      0.492504    53A      0.498955  
      54A      0.511731    55A      0.523803    56A      0.534232  
      57A      0.568243    58A      0.608563    59A      0.648174  
      60A      0.663677    61A      0.679518    62A      0.771241  
      63A      0.839342    64A      0.980604    65A      0.986542  
      66A      1.125547    67A      1.161101    68A      1.201787  
      69A      1.244557    70A      1.308627    71A      1.331102  
      72A      1.443383    73A      1.461444    74A      1.467004  
      75A      1.468281    76A      1.522231    77A      1.634375  
      78A      1.667938    79A      1.709719    80A      1.777401  
      81A      1.794888    82A      1.890205    83A      1.892815  
      84A      1.942058    85A      1.953571    86A      2.048768  
      87A      2.049316    88A      2.075208    89A      2.217469  
      90A      2.253524    91A      2.275479    92A      2.300710  
      93A      2.386854    94A      2.419243    95A      2.468947  
      96A      2.544040    97A      2.557753    98A      2.601641  
      99A      2.707676   100A      2.744958   101A      2.800809  
     102A      2.854556   103A      2.917505   104A      2.919540  
     105A      2.956455   106A      3.011637   107A      3.033205  
     108A      3.126780   109A      3.132678   110A      3.133745  
     111A      3.155284   112A      3.651065   113A      3.668609  
     114A      3.910817   115A      3.912128   116A      4.143188  
     117A      4.185247   118A      4.918543   119A      4.925985  
     120A      4.935053   121A      4.935078   122A      4.938045  
     123A      4.941787   124A      4.963741   125A      4.981345  
     126A      5.212229   127A      5.219455   128A      5.242272  
     129A      5.263478   130A      5.784449   131A      5.832475  
     132A      6.016739   133A      6.044436   134A      6.098649  
     135A      6.118818   136A      6.243579   137A      6.303385  
     138A      6.334829   139A      6.434534   140A      6.666484  
     141A      6.667899   142A      6.668918   143A      6.675972  
     144A      6.681905   145A      6.681947   146A      6.682016  
     147A      6.682902   148A      6.692070   149A      6.701700  
     150A      6.728629   151A      6.730303   152A      6.838646  
     153A      6.859466   154A      6.900353   155A      6.979611  
     156A      8.039873   157A      8.061247   158A      8.099541  
     159A      8.113066   160A      8.128563   161A      8.187656  
     162A      8.287032   163A      8.308211   164A      8.594398  
     165A      8.649757   166A     43.327708   167A     43.330484  
     168A     56.675690   169A     56.751985  

    Final Occupation by Irrep:
              A 
    DOCC [    29 ]

  @DF-RKS Final Energy: -1390.37956598964001

   => Energetics <=

    Nuclear Repulsion Energy =            352.4936155647697547
    One-Electron Energy =               -2621.3676068166250843
    Two-Electron Energy =                 960.3780283601764722
    DFT Exchange-Correlation Energy =     -81.8836030979609006
    Empirical Dispersion Energy =           0.0000000000000000
    VV10 Nonlocal Energy =                  0.0000000000000000
    Total Energy =                      -1390.3795659896400139

Computation Completed


Properties will be evaluated at   0.000000,   0.000000,   0.000000 [a0]

Properties computed using the SCF density matrix

  Nuclear Dipole Moment: [e a0]
     X:    -0.0217      Y:     1.4450      Z:    -0.3180

  Electronic Dipole Moment: [e a0]
     X:     0.0229      Y:    -1.5224      Z:     0.3351

  Dipole Moment: [e a0]
     X:     0.0012      Y:    -0.0775      Z:     0.0171     Total:     0.0793

  Dipole Moment: [D]
     X:     0.0030      Y:    -0.1969      Z:     0.0433     Total:     0.2016


*** tstop() called on thinkpad at Sat Jul 10 14:59:16 2021
Module time:
	user time   =       8.28 seconds =       0.14 minutes
	system time =       0.08 seconds =       0.00 minutes
	total time  =          3 seconds =       0.05 minutes
Total time:
	user time   =     201.59 seconds =       3.36 minutes
	system time =       1.79 seconds =       0.03 minutes
	total time  =         79 seconds =       1.32 minutes

*** tstart() called on thinkpad
*** at Sat Jul 10 14:59:16 2021


         ------------------------------------------------------------
                                   SCF GRAD                          
                          Rob Parrish, Justin Turney,                
                       Andy Simmonett, and Alex Sokolov              
         ------------------------------------------------------------

  ==> Geometry <==

    Molecular point group: c1
    Full point group: C1

    Geometry (in Angstrom), charge = 0, multiplicity = 1:

       Center              X                  Y                   Z               Mass       
    ------------   -----------------  -----------------  -----------------  -----------------
         CR          -0.000929168584     0.061830347191    -0.013608650173    51.940506230000
         O            1.013103132477     0.807472616965    -0.919551284163    15.994914619570
         O           -1.041607173444     1.089486399444     0.502035165042    15.994914619570
         F           -0.786895326332    -1.138473376582    -0.911501049903    18.998403162730
         F            0.813433408711    -0.627632792993     1.300216606336    18.998403162730

  Nuclear repulsion =  352.493615564769755

  ==> Basis Set <==

  Basis Set: DEF2-TZVP
    Blend: DEF2-TZVP
    Number of shells: 59
    Number of basis function: 169
    Number of Cartesian functions: 196
    Spherical Harmonics?: true
    Max angular momentum: 3

  ==> DFJKGrad: Density-Fitted SCF Gradients <==

    Gradient:                    1
    J tasked:                  Yes
    K tasked:                   No
    wK tasked:                  No
    OpenMP threads:              4
    Integrals threads:           4
    Memory [MiB]:             5722
    Schwarz Cutoff:          0E+00
    Fitting Condition:       1E-10

   => Auxiliary Basis Set <=

  Basis Set: (DEF2-TZVP AUX)
    Blend: DEF2-TZVP-JKFIT
    Number of shells: 158
    Number of basis function: 572
    Number of Cartesian functions: 749
    Spherical Harmonics?: true
    Max angular momentum: 6

  ==> DFT Potential <==

   => Composite Functional: MY LDA <= 

    Slater exchange
    Perdew & Wang
    P. A. M. Dirac, Math. Proc. Cambridge Philos. Soc. 26, 376 (1930)
    F. Bloch, Z. Phys. 57, 545 (1929)
    J. P. Perdew and Y. Wang, Phys. Rev. B 45, 13244 (1992)

    Deriv               =              1
    GGA                 =          FALSE
    Meta                =          FALSE

    Exchange Hybrid     =          FALSE
    MP2 Hybrid          =          FALSE

   => Exchange Functionals <=

    1.0000         XC_lda_x

   => Correlation Functionals <=

    1.0000      XC_lda_c_pw

   => Molecular Quadrature <=

    Radial Scheme          =       TREUTLER
    Pruning Scheme         =           FLAT
    Nuclear Scheme         =       TREUTLER

    BS radius alpha        =              1
    Pruning alpha          =              1
    Radial Points          =             75
    Spherical Points       =            302
    Total Points           =         113250
    Total Blocks           =            922
    Max Points             =            255
    Max Functions          =            162


  -Total Gradient:
     Atom            X                  Y                   Z
    ------   -----------------  -----------------  -----------------
       1        0.000000193146    -0.000013178424     0.000002899651
       2        0.000000259969    -0.000013146685     0.000002851654
       3        0.000000104298    -0.000013057809     0.000002943710
       4        0.000000287500    -0.000012891175     0.000002935414
       5        0.000000134304    -0.000012936304     0.000002722605


*** tstop() called on thinkpad at Sat Jul 10 14:59:19 2021
Module time:
	user time   =       6.85 seconds =       0.11 minutes
	system time =       0.02 seconds =       0.00 minutes
	total time  =          3 seconds =       0.05 minutes
Total time:
	user time   =     208.44 seconds =       3.47 minutes
	system time =       1.81 seconds =       0.03 minutes
	total time  =         82 seconds =       1.37 minutes

			-----------------------------------------
			 OPTKING 2.0: for geometry optimizations 
			  - R.A. King,  Bethel University        
			-----------------------------------------

	Previous internal coordinate definitions found.
	---Fragment 1 Geometry and Gradient---
	 CR         -0.0017558741        0.1168424224       -0.0257166218
	 O           1.9144874572        1.5259020999       -1.7377000854
	 O          -1.9683522881        2.0588309124        0.9487089673
	 F          -1.4870166562       -2.1514028829       -1.7224873474
	 F           1.5371663638       -1.1860540861        2.4570532897
	             0.0000001931       -0.0000131784        0.0000028997
	             0.0000002600       -0.0000131467        0.0000028517
	             0.0000001043       -0.0000130578        0.0000029437
	             0.0000002875       -0.0000128912        0.0000029354
	             0.0000001343       -0.0000129363        0.0000027226

	---Fragment 1 Intrafragment Coordinates---
	 - Coordinate -           - BOHR/RAD -       - ANG/DEG -
	 R(1,2)           =         2.930584	       1.550798
	 R(1,3)           =         2.930585	       1.550799
	 R(1,4)           =         3.198432	       1.692537
	 R(1,5)           =         3.198432	       1.692537
	 B(2,1,3)         =         1.890637	     108.325514
	 B(2,1,4)         =         1.912099	     109.555175
	 B(2,1,5)         =         1.912098	     109.555174
	 B(3,1,4)         =         1.912099	     109.555199
	 B(3,1,5)         =         1.912099	     109.555199
	 B(4,1,5)         =         1.924469	     110.263952

	Current energy   :     -1390.3795659896

	Energy change for the previous step:
		Projected    :        -0.0000000000
		Actual       :         0.0000000007

	Performing BFGS update.
	Previous computed or guess Hessian on step 1.
	Denominators (dg)(dq) or (dq)(dq) are very small.
	 Skipping Hessian update for step 11.
	Denominators (dg)(dq) or (dq)(dq) are very small.
	 Skipping Hessian update for step 10.
	Denominators (dg)(dq) or (dq)(dq) are very small.
	 Skipping Hessian update for step 9.
	Denominators (dg)(dq) or (dq)(dq) are very small.
	 Skipping Hessian update for step 8.
	Steps to be used in Hessian update: 7 6
	Taking RFO optimization step.
	Going to follow RFO solution 1.
	Using RFO vector 1.
	Norm of target step-size    0.00000
	Projected energy change by RFO approximation:        -0.0000000000

	Back-transformation to cartesian coordinates...
	Successfully converged to displaced geometry.

	--- Internal Coordinate Step in ANG or DEG, aJ/ANG or AJ/DEG ---
	 ---------------------------------------------------------------------------
	   Coordinate                Previous        Force       Change         New 
	   ----------                --------       ------       ------       ------
	    1 R(1,2)          =      1.550798    -0.000000    -0.000000     1.550798
	    2 R(1,3)          =      1.550799    -0.000001    -0.000000     1.550799
	    3 R(1,4)          =      1.692537     0.000002     0.000000     1.692538
	    4 R(1,5)          =      1.692537     0.000002     0.000000     1.692538
	    5 B(2,1,3)        =    108.325514    -0.000000    -0.000044   108.325469
	    6 B(2,1,4)        =    109.555175     0.000000     0.000028   109.555203
	    7 B(2,1,5)        =    109.555174     0.000000     0.000029   109.555203
	    8 B(3,1,4)        =    109.555199     0.000000     0.000008   109.555208
	    9 B(3,1,5)        =    109.555199     0.000000     0.000010   109.555209
	   10 B(4,1,5)        =    110.263952    -0.000000    -0.000031   110.263921
	 ---------------------------------------------------------------------------
	Successfully symmetrized geometry.

  ==> Convergence Check <==

  Measures of convergence in internal coordinates in au.
  Criteria marked as inactive (o), active & met (*), and active & unmet ( ).
  ---------------------------------------------------------------------------------------------
   Step     Total Energy     Delta E     MAX Force     RMS Force      MAX Disp      RMS Disp   
  ---------------------------------------------------------------------------------------------
    Convergence Criteria             o    2.00e-06 *    1.00e-06 *    6.00e-06 *    4.00e-06 *
  ---------------------------------------------------------------------------------------------
     12   -1390.37956599    7.17e-10 o    2.46e-07 *    1.28e-07 *    7.73e-07 *    4.47e-07 *  ~
  ---------------------------------------------------------------------------------------------


  **** Optimization is complete! (in 12 steps) ****

  ==> Optimization Summary <==

  Measures of convergence in internal coordinates in au.
  --------------------------------------------------------------------------------------------------------------- ~
   Step         Total Energy             Delta E       MAX Force       RMS Force        MAX Disp        RMS Disp  ~
  --------------------------------------------------------------------------------------------------------------- ~
      1   -1390.378373048600  -1390.378373048600      0.01598879      0.00901493      0.06337207      0.02260114  ~
      2   -1390.379203761811     -0.000830713210      0.01112602      0.00524657      0.01033305      0.00508156  ~
      3   -1390.379410159882     -0.000206398071      0.00720773      0.00339134      0.01814534      0.00869705  ~
      4   -1390.379562883954     -0.000152724072      0.00062269      0.00036671      0.00192266      0.00092267  ~
      5   -1390.379565170199     -0.000002286245      0.00037563      0.00021329      0.00237084      0.00085844  ~
      6   -1390.379565963910     -0.000000793710      0.00026242      0.00012029      0.00064480      0.00025173  ~
      7   -1390.379566020072     -0.000000056162      0.00017339      0.00007834      0.00007848      0.00003564  ~
      8   -1390.379566022752     -0.000000002681      0.00012755      0.00005797      0.00010989      0.00005392  ~
      9   -1390.379566012486      0.000000010267      0.00006317      0.00002940      0.00009003      0.00004867  ~
     10   -1390.379565998346      0.000000014139      0.00001843      0.00000912      0.00004344      0.00002176  ~
     11   -1390.379565990357      0.000000007989      0.00000312      0.00000175      0.00001120      0.00000587  ~
     12   -1390.379565989640      0.000000000717      0.00000025      0.00000013      0.00000077      0.00000045  ~
  --------------------------------------------------------------------------------------------------------------- ~

	Writing optimization data to binary file.
	Final energy is  -1390.3795659896400
	Final (previous) structure:
	Cartesian Geometry (in Angstrom)
	   CR    -0.0009291686   0.0618303469  -0.0136086501
	    O     1.0131031285   0.8074726138  -0.9195512805
	    O    -1.0416071693   1.0894863952   0.5020351631
	    F    -0.7868953232  -1.1384733721  -0.9115010463
	    F     0.8134334055  -0.6276327905   1.3002166012
	Saving final (previous) structure.
			--------------------------
			 OPTKING Finished Execution 
			--------------------------

    Final optimized geometry and variables:
    Molecular point group: c1
    Full point group: C1

    Geometry (in Angstrom), charge = 0, multiplicity = 1:

    CR          -0.000929168584     0.061830347191    -0.013608650173
    O            1.013103132477     0.807472616965    -0.919551284163
    O           -1.041607173444     1.089486399444     0.502035165042
    F           -0.786895326332    -1.138473376582    -0.911501049903
    F            0.813433408711    -0.627632792993     1.300216606336

	Removing binary optimization data file.
	Cleaning optimization helper files.

    Psi4 stopped on: Saturday, 10 July 2021 02:59PM
    Psi4 wall time for execution: 0:01:21.75

*** Psi4 exiting successfully. Buy a developer a beer!
