
    -----------------------------------------------------------------------
          Psi4: An Open-Source Ab Initio Electronic Structure Package
                               Psi4 1.3.2 release

                         Git: Rev {} zzzzzzz 


    R. M. Parrish, L. A. Burns, D. G. A. Smith, A. C. Simmonett,
    A. E. DePrince III, E. G. Hohenstein, U. Bozkaya, A. Yu. Sokolov,
    R. Di Remigio, R. M. Richard, J. F. Gonthier, A. M. James,
    H. R. McAlexander, A. Kumar, M. Saitow, X. Wang, B. P. Pritchard,
    P. Verma, H. F. Schaefer III, K. Patkowski, R. A. King, E. F. Valeev,
    F. A. Evangelista, J. M. Turney, T. D. Crawford, and C. D. Sherrill,
    J. Chem. Theory Comput. 13(7) pp 3185--3197 (2017).
    (doi: 10.1021/acs.jctc.7b00174)


                         Additional Contributions by
    P. Kraus, H. Kruse, M. H. Lechner, M. C. Schieber, R. A. Shaw,
    A. Alenaizan, R. Galvelis, Z. L. Glick, S. Lehtola, and J. P. Misiewicz

    -----------------------------------------------------------------------


    Psi4 started on: Saturday, 10 July 2021 03:10PM

    Process ID: 1813609
    Host:       thinkpad
    PSIDATADIR: /usr/share/psi4
    Memory:     500.0 MiB
    Threads:    4
    
  ==> Input File <==

--------------------------------------------------------------------------
memory 8 gb

molecule {
symmetry c1
Cr        0.48028725377749    0.32716919378518    0.12128381663197
O         1.51332165941332    1.03448648135578   -0.78955553051410
O        -0.57831537187616    1.32157128739802    0.65757817076212
F        -0.29602430869141   -0.85637252313759   -0.76598418135575
F         1.28459076737678   -0.35182443940140    1.41848772447575
}

set basis def2-SVP
set geom_maxiter 250

# Use a (75,302) quadrature grid
set dft_radial_points 75
set dft_spherical_points 302

# Very tight geometry optimization
set g_convergence gau_verytight
# Increase allowed number of geometry optimization steps
set geom_maxiter 250

# Use the Hueckel type guess
set guess huckel

my_dft = {
    "name": "my pbe",
    "x_functionals": {"gga_x_pbe": {}},
    "c_functionals": {"gga_c_pbe": {}}
}
optimize('scf', dft_functional=my_dft)
--------------------------------------------------------------------------

  Memory set to   7.451 GiB by Python driver.
gradient() will perform analytic gradient computation.

*** tstart() called on thinkpad
*** at Sat Jul 10 15:10:34 2021

   => Loading Basis Set <=

    Name: DEF2-SVP
    Role: ORBITAL
    Keyword: BASIS
    atoms 1   entry CR         line   614 file /usr/share/psi4/basis/def2-svp.gbs 
    atoms 2-3 entry O          line   130 file /usr/share/psi4/basis/def2-svp.gbs 
    atoms 4-5 entry F          line   150 file /usr/share/psi4/basis/def2-svp.gbs 


         ---------------------------------------------------------
                                   SCF
               by Justin Turney, Rob Parrish, Andy Simmonett
                          and Daniel G. A. Smith
                              RKS Reference
                        4 Threads,   7629 MiB Core
         ---------------------------------------------------------

  ==> Geometry <==

    Molecular point group: c1
    Full point group: C1

    Geometry (in Angstrom), charge = 0, multiplicity = 1:

       Center              X                  Y                   Z               Mass       
    ------------   -----------------  -----------------  -----------------  -----------------
         CR          -0.001007494106     0.066977222278    -0.014740872913    51.940506230000
         O            1.032026911530     0.774294509849    -0.925580220059    15.994914619570
         O           -1.059610119760     1.061379315891     0.521553481217    15.994914619570
         F           -0.777319056575    -1.116564494645    -0.902008870901    18.998403162730
         F            0.803296019493    -0.612016410908     1.282463034931    18.998403162730

  Running in c1 symmetry.

  Rotational constants: A =      0.15233  B =      0.13609  C =      0.12992 [cm^-1]
  Rotational constants: A =   4566.71939  B =   4079.72696  C =   3895.02954 [MHz]
  Nuclear repulsion =  355.181605515257786

  Charge       = 0
  Multiplicity = 1
  Electrons    = 58
  Nalpha       = 29
  Nbeta        = 29

  ==> Algorithm <==

  SCF Algorithm Type is DF.
  DIIS enabled.
  MOM disabled.
  Fractional occupation disabled.
  Guess Type is HUCKEL.
  Energy threshold   = 1.00e-08
  Density threshold  = 1.00e-08
  Integral threshold = 0.00e+00

  ==> Primary Basis <==

  Basis Set: DEF2-SVP
    Blend: DEF2-SVP
    Number of shells: 35
    Number of basis function: 87
    Number of Cartesian functions: 96
    Spherical Harmonics?: true
    Max angular momentum: 3

  ==> DFT Potential <==

   => Composite Functional: MY PBE <= 

    Perdew, Burke & Ernzerhof
    J. P. Perdew, K. Burke, and M. Ernzerhof, Phys. Rev. Lett. 77, 3865 (1996)
    J. P. Perdew, K. Burke, and M. Ernzerhof, Phys. Rev. Lett. 78, 1396 (1997)

    Deriv               =              1
    GGA                 =           TRUE
    Meta                =          FALSE

    Exchange Hybrid     =          FALSE
    MP2 Hybrid          =          FALSE

   => Exchange Functionals <=

    1.0000     XC_gga_x_pbe

   => Correlation Functionals <=

    1.0000     XC_gga_c_pbe

   => Molecular Quadrature <=

    Radial Scheme          =       TREUTLER
    Pruning Scheme         =           FLAT
    Nuclear Scheme         =       TREUTLER

    BS radius alpha        =              1
    Pruning alpha          =              1
    Radial Points          =             75
    Spherical Points       =            302
    Total Points           =         113250
    Total Blocks           =            920
    Max Points             =            256
    Max Functions          =             84

   => Loading Basis Set <=

    Name: (DEF2-SVP AUX)
    Role: JKFIT
    Keyword: DF_BASIS_SCF
    atoms 1   entry CR         line  1731 file /usr/share/psi4/basis/def2-svp-jkfit.gbs 
    atoms 2-3 entry O          line   323 file /usr/share/psi4/basis/def2-svp-jkfit.gbs 
    atoms 4-5 entry F          line   383 file /usr/share/psi4/basis/def2-svp-jkfit.gbs 

  ==> Pre-Iterations <==

   -------------------------------------------------------
    Irrep   Nso     Nmo     Nalpha   Nbeta   Ndocc  Nsocc
   -------------------------------------------------------
     A         87      87       0       0       0       0
   -------------------------------------------------------
    Total      87      87      29      29      29       0
   -------------------------------------------------------

  ==> Integral Setup <==

  DFHelper Memory: AOs need 0.037 GiB; user supplied 5.378 GiB. Using in-core AOs.

  ==> MemDFJK: Density-Fitted J/K Matrices <==

    J tasked:                   Yes
    K tasked:                    No
    wK tasked:                   No
    OpenMP threads:               4
    Memory [MiB]:              5506
    Algorithm:                 Core
    Schwarz Cutoff:           1E-12
    Mask sparsity (%):       0.9248
    Fitting Condition:        1E-10

   => Auxiliary Basis Set <=

  Basis Set: (DEF2-SVP AUX)
    Blend: DEF2-SVP-JKFIT
    Number of shells: 158
    Number of basis function: 572
    Number of Cartesian functions: 749
    Spherical Harmonics?: true
    Max angular momentum: 6

  Cached 100.0% of DFT collocation blocks in 0.210 [GiB].

  Minimum eigenvalue in the overlap matrix is 1.8739376201E-02.
  Using Symmetric Orthogonalization.

  SCF Guess: Huckel guess via on-the-fly atomic UHF (doi:10.1021/acs.jctc.8b01089).

  ==> Iterations <==

                           Total Energy        Delta E     RMS |[F,P]|

   @DF-RKS iter   1: -1392.03563896171295   -1.39204e+03   2.73690e-02 DIIS
   @DF-RKS iter   2: -1373.14657193520316    1.88891e+01   5.36669e-02 DIIS
   @DF-RKS iter   3: -1390.95834186608090   -1.78118e+01   2.76801e-02 DIIS
   @DF-RKS iter   4: -1392.97166626109674   -2.01332e+00   1.60673e-02 DIIS
   @DF-RKS iter   5: -1391.78055415213339    1.19111e+00   2.77666e-02 DIIS
   @DF-RKS iter   6: -1393.53913600140640   -1.75858e+00   9.69927e-03 DIIS
   @DF-RKS iter   7: -1393.09268448776061    4.46452e-01   1.48066e-02 DIIS
   @DF-RKS iter   8: -1393.06962516698673    2.30593e-02   1.50771e-02 DIIS
   @DF-RKS iter   9: -1393.27408994637835   -2.04465e-01   1.30362e-02 DIIS
   @DF-RKS iter  10: -1393.28643638598442   -1.23464e-02   1.30943e-02 DIIS
   @DF-RKS iter  11: -1393.34097398466884   -5.45376e-02   1.23715e-02 DIIS
   @DF-RKS iter  12: -1393.58940240841093   -2.48428e-01   8.28315e-03 DIIS
   @DF-RKS iter  13: -1393.65060473605945   -6.12023e-02   6.72376e-03 DIIS
   @DF-RKS iter  14: -1393.76595068626875   -1.15346e-01   2.11782e-03 DIIS
   @DF-RKS iter  15: -1393.77527344608302   -9.32276e-03   5.87887e-04 DIIS
   @DF-RKS iter  16: -1393.77599797916309   -7.24533e-04   2.99436e-04 DIIS
   @DF-RKS iter  17: -1393.77611177648600   -1.13797e-04   2.29370e-04 DIIS
   @DF-RKS iter  18: -1393.77623388174857   -1.22105e-04   9.84971e-06 DIIS
   @DF-RKS iter  19: -1393.77623414965956   -2.67911e-07   2.18503e-06 DIIS
   @DF-RKS iter  20: -1393.77623416368056   -1.40210e-08   2.23796e-07 DIIS
   @DF-RKS iter  21: -1393.77623416373171   -5.11591e-11   1.78129e-07 DIIS
   @DF-RKS iter  22: -1393.77623416380129   -6.95763e-11   6.70594e-08 DIIS
   @DF-RKS iter  23: -1393.77623416381402   -1.27329e-11   2.16918e-08 DIIS
   @DF-RKS iter  24: -1393.77623416381289    1.13687e-12   1.07166e-09 DIIS
  Energy and wave function converged.


  ==> Post-Iterations <==

    Orbital Energies [Eh]
    ---------------------

    Doubly Occupied:                                                      

       1A   -214.706443     2A    -24.510840     3A    -24.309222  
       4A    -24.309221     5A    -20.888606     6A    -20.887997  
       7A    -20.883876     8A    -18.841479     9A    -18.841474  
      10A     -2.915599    11A     -1.910203    12A     -1.909908  
      13A     -1.906703    14A     -1.082477    15A     -1.076896  
      16A     -0.884478    17A     -0.872272    18A     -0.475684  
      19A     -0.469482    20A     -0.453713    21A     -0.452222  
      22A     -0.450301    23A     -0.411442    24A     -0.403475  
      25A     -0.386537    26A     -0.367706    27A     -0.355661  
      28A     -0.354383    29A     -0.315626  

    Virtual:                                                              

      30A     -0.207432    31A     -0.190412    32A     -0.161519  
      33A     -0.122835    34A     -0.106301    35A     -0.008290  
      36A      0.151079    37A      0.196407    38A      0.199408  
      39A      0.199874    40A      0.541312    41A      0.542275  
      42A      0.555366    43A      0.602086    44A      0.603724  
      45A      0.868640    46A      0.879993    47A      0.921469  
      48A      0.933647    49A      0.949891    50A      0.971608  
      51A      1.066222    52A      1.093742    53A      1.137177  
      54A      1.165784    55A      1.184272    56A      1.185468  
      57A      1.289945    58A      1.365940    59A      1.596532  
      60A      1.610476    61A      2.143897    62A      2.241819  
      63A      2.269336    64A      2.325094    65A      2.445120  
      66A      2.474564    67A      2.476067    68A      2.478333  
      69A      2.488530    70A      2.520622    71A      2.608671  
      72A      2.694924    73A      2.771264    74A      2.825990  
      75A      2.902441    76A      2.934935    77A      2.954616  
      78A      2.964730    79A      3.116325    80A      3.134702  
      81A      3.197867    82A      3.199098    83A      3.205844  
      84A      3.212541    85A      3.240740    86A      3.302795  
      87A      3.436659  

    Final Occupation by Irrep:
              A 
    DOCC [    29 ]

  @DF-RKS Final Energy: -1393.77623416381289

   => Energetics <=

    Nuclear Repulsion Energy =            355.1816055152577860
    One-Electron Energy =               -2625.8398586893590618
    Two-Electron Energy =                 962.8171141838188305
    DFT Exchange-Correlation Energy =     -85.9350951735302999
    Empirical Dispersion Energy =           0.0000000000000000
    VV10 Nonlocal Energy =                  0.0000000000000000
    Total Energy =                      -1393.7762341638128873

Computation Completed


Properties will be evaluated at   0.000000,   0.000000,   0.000000 [a0]

Properties computed using the SCF density matrix

  Nuclear Dipole Moment: [e a0]
     X:    -0.0209      Y:     1.3901      Z:    -0.3060

  Electronic Dipole Moment: [e a0]
     X:     0.0231      Y:    -1.5374      Z:     0.3384

  Dipole Moment: [e a0]
     X:     0.0022      Y:    -0.1473      Z:     0.0324     Total:     0.1508

  Dipole Moment: [D]
     X:     0.0056      Y:    -0.3744      Z:     0.0824     Total:     0.3834


*** tstop() called on thinkpad at Sat Jul 10 15:10:41 2021
Module time:
	user time   =      17.39 seconds =       0.29 minutes
	system time =       0.23 seconds =       0.00 minutes
	total time  =          7 seconds =       0.12 minutes
Total time:
	user time   =      17.39 seconds =       0.29 minutes
	system time =       0.23 seconds =       0.00 minutes
	total time  =          7 seconds =       0.12 minutes

*** tstart() called on thinkpad
*** at Sat Jul 10 15:10:41 2021


         ------------------------------------------------------------
                                   SCF GRAD                          
                          Rob Parrish, Justin Turney,                
                       Andy Simmonett, and Alex Sokolov              
         ------------------------------------------------------------

  ==> Geometry <==

    Molecular point group: c1
    Full point group: C1

    Geometry (in Angstrom), charge = 0, multiplicity = 1:

       Center              X                  Y                   Z               Mass       
    ------------   -----------------  -----------------  -----------------  -----------------
         CR          -0.001007494106     0.066977222278    -0.014740872913    51.940506230000
         O            1.032026911530     0.774294509849    -0.925580220059    15.994914619570
         O           -1.059610119760     1.061379315891     0.521553481217    15.994914619570
         F           -0.777319056575    -1.116564494645    -0.902008870901    18.998403162730
         F            0.803296019493    -0.612016410908     1.282463034931    18.998403162730

  Nuclear repulsion =  355.181605515257786

  ==> Basis Set <==

  Basis Set: DEF2-SVP
    Blend: DEF2-SVP
    Number of shells: 35
    Number of basis function: 87
    Number of Cartesian functions: 96
    Spherical Harmonics?: true
    Max angular momentum: 3

  ==> DFJKGrad: Density-Fitted SCF Gradients <==

    Gradient:                    1
    J tasked:                  Yes
    K tasked:                   No
    wK tasked:                  No
    OpenMP threads:              4
    Integrals threads:           4
    Memory [MiB]:             5722
    Schwarz Cutoff:          0E+00
    Fitting Condition:       1E-10

   => Auxiliary Basis Set <=

  Basis Set: (DEF2-SVP AUX)
    Blend: DEF2-SVP-JKFIT
    Number of shells: 158
    Number of basis function: 572
    Number of Cartesian functions: 749
    Spherical Harmonics?: true
    Max angular momentum: 6

  ==> DFT Potential <==

   => Composite Functional: MY PBE <= 

    Perdew, Burke & Ernzerhof
    J. P. Perdew, K. Burke, and M. Ernzerhof, Phys. Rev. Lett. 77, 3865 (1996)
    J. P. Perdew, K. Burke, and M. Ernzerhof, Phys. Rev. Lett. 78, 1396 (1997)

    Deriv               =              1
    GGA                 =           TRUE
    Meta                =          FALSE

    Exchange Hybrid     =          FALSE
    MP2 Hybrid          =          FALSE

   => Exchange Functionals <=

    1.0000     XC_gga_x_pbe

   => Correlation Functionals <=

    1.0000     XC_gga_c_pbe

   => Molecular Quadrature <=

    Radial Scheme          =       TREUTLER
    Pruning Scheme         =           FLAT
    Nuclear Scheme         =       TREUTLER

    BS radius alpha        =              1
    Pruning alpha          =              1
    Radial Points          =             75
    Spherical Points       =            302
    Total Points           =         113250
    Total Blocks           =            920
    Max Points             =            256
    Max Functions          =             84


  -Total Gradient:
     Atom            X                  Y                   Z
    ------   -----------------  -----------------  -----------------
       1        0.000017529999    -0.001187128092     0.000261525266
       2       -0.005429745104    -0.011882978990     0.006673481605
       3        0.005810099353    -0.013425203152    -0.001103166838
       4        0.010413033835     0.016588690686     0.011759454601
       5       -0.010809500603     0.009814331953    -0.017571005802


*** tstop() called on thinkpad at Sat Jul 10 15:10:43 2021
Module time:
	user time   =       4.50 seconds =       0.07 minutes
	system time =       0.05 seconds =       0.00 minutes
	total time  =          2 seconds =       0.03 minutes
Total time:
	user time   =      21.89 seconds =       0.36 minutes
	system time =       0.28 seconds =       0.00 minutes
	total time  =          9 seconds =       0.15 minutes

			-----------------------------------------
			 OPTKING 2.0: for geometry optimizations 
			  - R.A. King,  Bethel University        
			-----------------------------------------

	Internal coordinates to be generated automatically.
	Detected frag 1 with atoms:  1 2 3 4 5
	---Fragment 1 Bond Connectivity---
	 1 : 2 3 4 5
	 2 : 1
	 3 : 1
	 4 : 1
	 5 : 1

	---Fragment 1 Geometry and Gradient---
	 CR         -0.0019038879        0.1265686067       -0.0278562127
	 O           1.9502482169        1.4632045641       -1.7490931231
	 O          -2.0023729261        2.0057162223        0.9855932393
	 F          -1.4689201290       -2.1100010963       -1.7045497287
	 F           1.5180094745       -1.1565434009        2.4235039020
	             0.0000175300       -0.0011871281        0.0002615253
	            -0.0054297451       -0.0118829790        0.0066734816
	             0.0058100994       -0.0134252032       -0.0011031668
	             0.0104130338        0.0165886907        0.0117594546
	            -0.0108095006        0.0098143320       -0.0175710058

	Previous optimization step data not found.  Starting new optimization.

	---Fragment 1 Intrafragment Coordinates---
	 - Coordinate -           - BOHR/RAD -       - ANG/DEG -
	 R(1,2)           =         2.925773	       1.548253
	 R(1,3)           =         2.925774	       1.548253
	 R(1,4)           =         3.156847	       1.670531
	 R(1,5)           =         3.156846	       1.670531
	 B(2,1,3)         =         1.946113	     111.504060
	 B(2,1,4)         =         1.897868	     108.739823
	 B(2,1,5)         =         1.897867	     108.739770
	 B(3,1,4)         =         1.897872	     108.740061
	 B(3,1,5)         =         1.897872	     108.740055
	 B(4,1,5)         =         1.926457	     110.377858

	Current energy   :     -1393.7762341638

	Generating empirical Hessian (Schlegel '84) for each fragment.
	Taking RFO optimization step.
	Going to follow RFO solution 1.
	Using RFO vector 1.
	Norm of target step-size    0.07548
	Projected energy change by RFO approximation:        -0.0023723606

	Back-transformation to cartesian coordinates...
	Successfully converged to displaced geometry.

	--- Internal Coordinate Step in ANG or DEG, aJ/ANG or AJ/DEG ---
	 ---------------------------------------------------------------------------
	   Coordinate                Previous        Force       Change         New 
	   ----------                --------       ------       ------       ------
	    1 R(1,2)          =      1.548253     0.106831     0.002496     1.550748
	    2 R(1,3)          =      1.548253     0.106829     0.002495     1.550748
	    3 R(1,4)          =      1.670531     0.188242     0.008987     1.679518
	    4 R(1,5)          =      1.670531     0.188243     0.008987     1.679518
	    5 B(2,1,3)        =    111.504060    -0.001242    -3.697929   107.806131
	    6 B(2,1,4)        =    108.739823     0.000278     0.813414   109.553237
	    7 B(2,1,5)        =    108.739770     0.000278     0.813464   109.553233
	    8 B(3,1,4)        =    108.740061     0.000278     0.813221   109.553282
	    9 B(3,1,5)        =    108.740055     0.000278     0.813234   109.553289
	   10 B(4,1,5)        =    110.377858     0.000127     0.389992   110.767850
	 ---------------------------------------------------------------------------
	Successfully symmetrized geometry.

  ==> Convergence Check <==

  Measures of convergence in internal coordinates in au.
  Criteria marked as inactive (o), active & met (*), and active & unmet ( ).
  --------------------------------------------------------------------------------------------- ~
   Step     Total Energy     Delta E     MAX Force     RMS Force      MAX Disp      RMS Disp    ~
  --------------------------------------------------------------------------------------------- ~
    Convergence Criteria             o    2.00e-06 *    1.00e-06 *    6.00e-06 *    4.00e-06 *  ~
  --------------------------------------------------------------------------------------------- ~
      1   -1393.77623416   -1.39e+03 o    2.28e-02      1.31e-02      6.45e-02      2.37e-02    ~
  ---------------------------------------------------------------------------------------------

	Writing optimization data to binary file.
	Structure for next step:
	Cartesian Geometry (in Angstrom)
	   CR    -0.0007604796   0.0506194346  -0.0111412024
	    O     1.0097821533   0.8022554825  -0.9159431936
	    O    -1.0381147805   1.0833344168   0.5009291229
	    F    -0.7831948849  -1.1352993153  -0.9067831089
	    F     0.8096742523  -0.6268398768   1.2946249344
			--------------------------
			 OPTKING Finished Execution 
			--------------------------

    Structure for next step:
    Molecular point group: c1
    Full point group: C1

    Geometry (in Angstrom), charge = 0, multiplicity = 1:

    CR          -0.000845678452     0.056268565009    -0.012384412470
    O            1.009696958505     0.807904615884    -0.917186407235
    O           -1.038199983390     1.088983551233     0.499685914881
    F           -0.783280086789    -1.129650189604    -0.908026322544
    F            0.809589056656    -0.621190749101     1.293381729479

gradient() will perform analytic gradient computation.

*** tstart() called on thinkpad
*** at Sat Jul 10 15:10:43 2021

   => Loading Basis Set <=

    Name: DEF2-SVP
    Role: ORBITAL
    Keyword: BASIS
    atoms 1   entry CR         line   614 file /usr/share/psi4/basis/def2-svp.gbs 
    atoms 2-3 entry O          line   130 file /usr/share/psi4/basis/def2-svp.gbs 
    atoms 4-5 entry F          line   150 file /usr/share/psi4/basis/def2-svp.gbs 


         ---------------------------------------------------------
                                   SCF
               by Justin Turney, Rob Parrish, Andy Simmonett
                          and Daniel G. A. Smith
                              RKS Reference
                        4 Threads,   7629 MiB Core
         ---------------------------------------------------------

  ==> Geometry <==

    Molecular point group: c1
    Full point group: C1

    Geometry (in Angstrom), charge = 0, multiplicity = 1:

       Center              X                  Y                   Z               Mass       
    ------------   -----------------  -----------------  -----------------  -----------------
         CR          -0.000845678452     0.056268565009    -0.012384412470    51.940506230000
         O            1.009696958505     0.807904615884    -0.917186407235    15.994914619570
         O           -1.038199983390     1.088983551233     0.499685914881    15.994914619570
         F           -0.783280086789    -1.129650189604    -0.908026322544    18.998403162730
         F            0.809589056656    -0.621190749101     1.293381729479    18.998403162730

  Running in c1 symmetry.

  Rotational constants: A =      0.15172  B =      0.13725  C =      0.12629 [cm^-1]
  Rotational constants: A =   4548.32956  B =   4114.79844  C =   3786.22656 [MHz]
  Nuclear repulsion =  353.899865940977520

  Charge       = 0
  Multiplicity = 1
  Electrons    = 58
  Nalpha       = 29
  Nbeta        = 29

  ==> Algorithm <==

  SCF Algorithm Type is DF.
  DIIS enabled.
  MOM disabled.
  Fractional occupation disabled.
  Guess Type is READ.
  Energy threshold   = 1.00e-08
  Density threshold  = 1.00e-08
  Integral threshold = 0.00e+00

  ==> Primary Basis <==

  Basis Set: DEF2-SVP
    Blend: DEF2-SVP
    Number of shells: 35
    Number of basis function: 87
    Number of Cartesian functions: 96
    Spherical Harmonics?: true
    Max angular momentum: 3

  ==> DFT Potential <==

   => Composite Functional: MY PBE <= 

    Perdew, Burke & Ernzerhof
    J. P. Perdew, K. Burke, and M. Ernzerhof, Phys. Rev. Lett. 77, 3865 (1996)
    J. P. Perdew, K. Burke, and M. Ernzerhof, Phys. Rev. Lett. 78, 1396 (1997)

    Deriv               =              1
    GGA                 =           TRUE
    Meta                =          FALSE

    Exchange Hybrid     =          FALSE
    MP2 Hybrid          =          FALSE

   => Exchange Functionals <=

    1.0000     XC_gga_x_pbe

   => Correlation Functionals <=

    1.0000     XC_gga_c_pbe

   => Molecular Quadrature <=

    Radial Scheme          =       TREUTLER
    Pruning Scheme         =           FLAT
    Nuclear Scheme         =       TREUTLER

    BS radius alpha        =              1
    Pruning alpha          =              1
    Radial Points          =             75
    Spherical Points       =            302
    Total Points           =         113250
    Total Blocks           =            921
    Max Points             =            254
    Max Functions          =             84

   => Loading Basis Set <=

    Name: (DEF2-SVP AUX)
    Role: JKFIT
    Keyword: DF_BASIS_SCF
    atoms 1   entry CR         line  1731 file /usr/share/psi4/basis/def2-svp-jkfit.gbs 
    atoms 2-3 entry O          line   323 file /usr/share/psi4/basis/def2-svp-jkfit.gbs 
    atoms 4-5 entry F          line   383 file /usr/share/psi4/basis/def2-svp-jkfit.gbs 

   => Loading Basis Set <=

    Name: DEF2-SVP
    Role: ORBITAL
    Keyword: BASIS
    atoms 1   entry CR         line   614 file /usr/share/psi4/basis/def2-svp.gbs 
    atoms 2-3 entry O          line   130 file /usr/share/psi4/basis/def2-svp.gbs 
    atoms 4-5 entry F          line   150 file /usr/share/psi4/basis/def2-svp.gbs 

  Reading orbitals from file 180, no projection.

  ==> Pre-Iterations <==

   -------------------------------------------------------
    Irrep   Nso     Nmo     Nalpha   Nbeta   Ndocc  Nsocc
   -------------------------------------------------------
     A         87      87       0       0       0       0
   -------------------------------------------------------
    Total      87      87      29      29      29       0
   -------------------------------------------------------

  ==> Integral Setup <==

  DFHelper Memory: AOs need 0.037 GiB; user supplied 5.378 GiB. Using in-core AOs.

  ==> MemDFJK: Density-Fitted J/K Matrices <==

    J tasked:                   Yes
    K tasked:                    No
    wK tasked:                   No
    OpenMP threads:               4
    Memory [MiB]:              5506
    Algorithm:                 Core
    Schwarz Cutoff:           1E-12
    Mask sparsity (%):       1.0305
    Fitting Condition:        1E-10

   => Auxiliary Basis Set <=

  Basis Set: (DEF2-SVP AUX)
    Blend: DEF2-SVP-JKFIT
    Number of shells: 158
    Number of basis function: 572
    Number of Cartesian functions: 749
    Spherical Harmonics?: true
    Max angular momentum: 6

  Cached 100.0% of DFT collocation blocks in 0.210 [GiB].

  Minimum eigenvalue in the overlap matrix is 1.8188805488E-02.
  Using Symmetric Orthogonalization.

  SCF Guess: Orbitals guess was supplied from a previous computation.

  ==> Iterations <==

                           Total Energy        Delta E     RMS |[F,P]|

   @DF-RKS iter   0: -1393.77303662899249   -1.39377e+03   1.19085e-03 
   @DF-RKS iter   1: -1393.77723813857006   -4.20151e-03   3.06010e-04 DIIS
   @DF-RKS iter   2: -1393.76579104730627    1.14471e-02   2.12157e-03 DIIS
   @DF-RKS iter   3: -1393.77692625002442   -1.11352e-02   4.81896e-04 DIIS
   @DF-RKS iter   4: -1393.77752172451164   -5.95474e-04   4.94730e-05 DIIS
   @DF-RKS iter   5: -1393.77752751782896   -5.79332e-06   5.86321e-06 DIIS
   @DF-RKS iter   6: -1393.77752757957364   -6.17447e-08   3.19239e-06 DIIS
   @DF-RKS iter   7: -1393.77752759571649   -1.61428e-08   1.78439e-06 DIIS
   @DF-RKS iter   8: -1393.77752760360227   -7.88577e-09   7.67343e-07 DIIS
   @DF-RKS iter   9: -1393.77752760501971   -1.41745e-09   1.65295e-07 DIIS
   @DF-RKS iter  10: -1393.77752760508292   -6.32099e-11   2.53405e-08 DIIS
   @DF-RKS iter  11: -1393.77752760508338   -4.54747e-13   6.18265e-09 DIIS
  Energy and wave function converged.


  ==> Post-Iterations <==

    Orbital Energies [Eh]
    ---------------------

    Doubly Occupied:                                                      

       1A   -214.708983     2A    -24.512593     3A    -24.307773  
       4A    -24.307771     5A    -20.890235     6A    -20.889825  
       7A    -20.885966     8A    -18.843055     9A    -18.843048  
      10A     -2.916110    11A     -1.911114    12A     -1.909989  
      13A     -1.906295    14A     -1.080280    15A     -1.074765  
      16A     -0.884261    17A     -0.874232    18A     -0.473968  
      19A     -0.467082    20A     -0.451411    21A     -0.450459  
      22A     -0.448782    23A     -0.410562    24A     -0.401930  
      25A     -0.386926    26A     -0.369507    27A     -0.356022  
      28A     -0.355266    29A     -0.314668  

    Virtual:                                                              

      30A     -0.206365    31A     -0.193586    32A     -0.162287  
      33A     -0.130316    34A     -0.105489    35A     -0.009328  
      36A      0.147404    37A      0.195566    38A      0.199125  
      39A      0.200982    40A      0.539592    41A      0.544397  
      42A      0.562293    43A      0.594832    44A      0.606131  
      45A      0.862156    46A      0.881213    47A      0.921602  
      48A      0.938235    49A      0.947219    50A      0.978542  
      51A      1.066865    52A      1.094226    53A      1.138589  
      54A      1.159109    55A      1.172528    56A      1.184190  
      57A      1.294614    58A      1.360593    59A      1.598444  
      60A      1.610815    61A      2.153919    62A      2.237879  
      63A      2.279610    64A      2.321103    65A      2.449387  
      66A      2.462358    67A      2.474303    68A      2.474345  
      69A      2.487770    70A      2.519086    71A      2.617583  
      72A      2.688874    73A      2.773956    74A      2.829821  
      75A      2.905392    76A      2.937150    77A      2.954115  
      78A      2.964720    79A      3.125607    80A      3.137357  
      81A      3.190661    82A      3.191114    83A      3.205934  
      84A      3.206582    85A      3.227268    86A      3.293683  
      87A      3.433844  

    Final Occupation by Irrep:
              A 
    DOCC [    29 ]

  @DF-RKS Final Energy: -1393.77752760508338

   => Energetics <=

    Nuclear Repulsion Energy =            353.8998659409775200
    One-Electron Energy =               -2623.2878608089604313
    Two-Electron Energy =                 961.5349675668246618
    DFT Exchange-Correlation Energy =     -85.9245003039252140
    Empirical Dispersion Energy =           0.0000000000000000
    VV10 Nonlocal Energy =                  0.0000000000000000
    Total Energy =                      -1393.7775276050833781

Computation Completed


Properties will be evaluated at   0.000000,   0.000000,   0.000000 [a0]

Properties computed using the SCF density matrix

  Nuclear Dipole Moment: [e a0]
     X:    -0.0218      Y:     1.4513      Z:    -0.3194

  Electronic Dipole Moment: [e a0]
     X:     0.0241      Y:    -1.6058      Z:     0.3534

  Dipole Moment: [e a0]
     X:     0.0023      Y:    -0.1545      Z:     0.0340     Total:     0.1582

  Dipole Moment: [D]
     X:     0.0059      Y:    -0.3927      Z:     0.0864     Total:     0.4021


*** tstop() called on thinkpad at Sat Jul 10 15:10:47 2021
Module time:
	user time   =       7.31 seconds =       0.12 minutes
	system time =       0.06 seconds =       0.00 minutes
	total time  =          4 seconds =       0.07 minutes
Total time:
	user time   =      29.24 seconds =       0.49 minutes
	system time =       0.34 seconds =       0.01 minutes
	total time  =         13 seconds =       0.22 minutes

*** tstart() called on thinkpad
*** at Sat Jul 10 15:10:47 2021


         ------------------------------------------------------------
                                   SCF GRAD                          
                          Rob Parrish, Justin Turney,                
                       Andy Simmonett, and Alex Sokolov              
         ------------------------------------------------------------

  ==> Geometry <==

    Molecular point group: c1
    Full point group: C1

    Geometry (in Angstrom), charge = 0, multiplicity = 1:

       Center              X                  Y                   Z               Mass       
    ------------   -----------------  -----------------  -----------------  -----------------
         CR          -0.000845678452     0.056268565009    -0.012384412470    51.940506230000
         O            1.009696958505     0.807904615884    -0.917186407235    15.994914619570
         O           -1.038199983390     1.088983551233     0.499685914881    15.994914619570
         F           -0.783280086789    -1.129650189604    -0.908026322544    18.998403162730
         F            0.809589056656    -0.621190749101     1.293381729479    18.998403162730

  Nuclear repulsion =  353.899865940977520

  ==> Basis Set <==

  Basis Set: DEF2-SVP
    Blend: DEF2-SVP
    Number of shells: 35
    Number of basis function: 87
    Number of Cartesian functions: 96
    Spherical Harmonics?: true
    Max angular momentum: 3

  ==> DFJKGrad: Density-Fitted SCF Gradients <==

    Gradient:                    1
    J tasked:                  Yes
    K tasked:                   No
    wK tasked:                  No
    OpenMP threads:              4
    Integrals threads:           4
    Memory [MiB]:             5722
    Schwarz Cutoff:          0E+00
    Fitting Condition:       1E-10

   => Auxiliary Basis Set <=

  Basis Set: (DEF2-SVP AUX)
    Blend: DEF2-SVP-JKFIT
    Number of shells: 158
    Number of basis function: 572
    Number of Cartesian functions: 749
    Spherical Harmonics?: true
    Max angular momentum: 6

  ==> DFT Potential <==

   => Composite Functional: MY PBE <= 

    Perdew, Burke & Ernzerhof
    J. P. Perdew, K. Burke, and M. Ernzerhof, Phys. Rev. Lett. 77, 3865 (1996)
    J. P. Perdew, K. Burke, and M. Ernzerhof, Phys. Rev. Lett. 78, 1396 (1997)

    Deriv               =              1
    GGA                 =           TRUE
    Meta                =          FALSE

    Exchange Hybrid     =          FALSE
    MP2 Hybrid          =          FALSE

   => Exchange Functionals <=

    1.0000     XC_gga_x_pbe

   => Correlation Functionals <=

    1.0000     XC_gga_c_pbe

   => Molecular Quadrature <=

    Radial Scheme          =       TREUTLER
    Pruning Scheme         =           FLAT
    Nuclear Scheme         =       TREUTLER

    BS radius alpha        =              1
    Pruning alpha          =              1
    Radial Points          =             75
    Spherical Points       =            302
    Total Points           =         113250
    Total Blocks           =            921
    Max Points             =            254
    Max Functions          =             84


  -Total Gradient:
     Atom            X                  Y                   Z
    ------   -----------------  -----------------  -----------------
       1        0.000164027198    -0.010915586857     0.002402563076
       2       -0.006500463789    -0.003149619706     0.005431010264
       3        0.006622146205    -0.004950614984    -0.003648132134
       4        0.007622174737     0.011929813225     0.008650126892
       5       -0.007906186616     0.006973052606    -0.012810707179


*** tstop() called on thinkpad at Sat Jul 10 15:10:48 2021
Module time:
	user time   =       3.79 seconds =       0.06 minutes
	system time =       0.02 seconds =       0.00 minutes
	total time  =          1 seconds =       0.02 minutes
Total time:
	user time   =      33.03 seconds =       0.55 minutes
	system time =       0.36 seconds =       0.01 minutes
	total time  =         14 seconds =       0.23 minutes

			-----------------------------------------
			 OPTKING 2.0: for geometry optimizations 
			  - R.A. King,  Bethel University        
			-----------------------------------------

	Previous internal coordinate definitions found.
	---Fragment 1 Geometry and Gradient---
	 CR         -0.0015981007        0.1063321773       -0.0234031478
	 O           1.9080507213        1.5267184595       -1.7332311157
	 O          -1.9619136321        2.0578806670        0.9442695279
	 F          -1.4801848436       -2.1347294759       -1.7159210643
	 F           1.5299015912       -1.1738803875        2.4441372444
	             0.0001640272       -0.0109155869        0.0024025631
	            -0.0065004638       -0.0031496197        0.0054310103
	             0.0066221462       -0.0049506150       -0.0036481321
	             0.0076221747        0.0119298132        0.0086501269
	            -0.0079061866        0.0069730526       -0.0128107072

	---Fragment 1 Intrafragment Coordinates---
	 - Coordinate -           - BOHR/RAD -       - ANG/DEG -
	 R(1,2)           =         2.930489	       1.550748
	 R(1,3)           =         2.930490	       1.550748
	 R(1,4)           =         3.173829	       1.679518
	 R(1,5)           =         3.173829	       1.679518
	 B(2,1,3)         =         1.881572	     107.806131
	 B(2,1,4)         =         1.912065	     109.553237
	 B(2,1,5)         =         1.912065	     109.553233
	 B(3,1,4)         =         1.912065	     109.553282
	 B(3,1,5)         =         1.912066	     109.553289
	 B(4,1,5)         =         1.933264	     110.767850

	Current energy   :     -1393.7775276051

	Energy change for the previous step:
		Projected    :        -0.0023723606
		Actual       :        -0.0012934413

	Performing BFGS update.
	Previous computed or guess Hessian on step 1.
	Steps to be used in Hessian update: 1
	Taking RFO optimization step.
	Going to follow RFO solution 1.
	Using RFO vector 1.
	Norm of target step-size    0.03069
	Projected energy change by RFO approximation:        -0.0008326847

	Back-transformation to cartesian coordinates...
	Successfully converged to displaced geometry.

	--- Internal Coordinate Step in ANG or DEG, aJ/ANG or AJ/DEG ---
	 ---------------------------------------------------------------------------
	   Coordinate                Previous        Force       Change         New 
	   ----------                --------       ------       ------       ------
	    1 R(1,2)          =      1.550748     0.073471     0.002874     1.553622
	    2 R(1,3)          =      1.550748     0.073470     0.002874     1.553622
	    3 R(1,4)          =      1.679518     0.136768     0.010773     1.690291
	    4 R(1,5)          =      1.679518     0.136769     0.010773     1.690291
	    5 B(2,1,3)        =    107.806131     0.000276    -0.170196   107.635935
	    6 B(2,1,4)        =    109.553237    -0.000037     0.119379   109.672616
	    7 B(2,1,5)        =    109.553233    -0.000037     0.119404   109.672637
	    8 B(3,1,4)        =    109.553282    -0.000037     0.119274   109.672555
	    9 B(3,1,5)        =    109.553289    -0.000037     0.119276   109.672565
	   10 B(4,1,5)        =    110.767850    -0.000118    -0.302303   110.465547
	 ---------------------------------------------------------------------------
	Successfully symmetrized geometry.

  ==> Convergence Check <==

  Measures of convergence in internal coordinates in au.
  Criteria marked as inactive (o), active & met (*), and active & unmet ( ).
  ---------------------------------------------------------------------------------------------
   Step     Total Energy     Delta E     MAX Force     RMS Force      MAX Disp      RMS Disp   
  ---------------------------------------------------------------------------------------------
    Convergence Criteria             o    2.00e-06 *    1.00e-06 *    6.00e-06 *    4.00e-06 *
  ---------------------------------------------------------------------------------------------
      2   -1393.77752761   -1.29e-03 o    1.66e-02      8.52e-03      2.04e-02      9.71e-03    ~
  ---------------------------------------------------------------------------------------------

	Writing optimization data to binary file.
	Structure for next step:
	Cartesian Geometry (in Angstrom)
	   CR    -0.0008815586   0.0587018985  -0.0129203802
	    O     1.0103938701   0.8137039852  -0.9190303739
	    O    -1.0390740384   1.0949971868   0.4989293954
	    F    -0.7868198534  -1.1379372333  -0.9114975566
	    F     0.8133418467  -0.6271500446   1.2999894176
			--------------------------
			 OPTKING Finished Execution 
			--------------------------

    Structure for next step:
    Molecular point group: c1
    Full point group: C1

    Geometry (in Angstrom), charge = 0, multiplicity = 1:

    CR          -0.000876228198     0.058335459554    -0.012839632236
    O            1.010399204467     0.813337549156    -0.918949629520
    O           -1.039068712055     1.094630751925     0.499010145282
    F           -0.786814526060    -1.138303676964    -0.911416812253
    F            0.813347180300    -0.627516486218     1.300070170679

gradient() will perform analytic gradient computation.

*** tstart() called on thinkpad
*** at Sat Jul 10 15:10:48 2021

   => Loading Basis Set <=

    Name: DEF2-SVP
    Role: ORBITAL
    Keyword: BASIS
    atoms 1   entry CR         line   614 file /usr/share/psi4/basis/def2-svp.gbs 
    atoms 2-3 entry O          line   130 file /usr/share/psi4/basis/def2-svp.gbs 
    atoms 4-5 entry F          line   150 file /usr/share/psi4/basis/def2-svp.gbs 


         ---------------------------------------------------------
                                   SCF
               by Justin Turney, Rob Parrish, Andy Simmonett
                          and Daniel G. A. Smith
                              RKS Reference
                        4 Threads,   7629 MiB Core
         ---------------------------------------------------------

  ==> Geometry <==

    Molecular point group: c1
    Full point group: C1

    Geometry (in Angstrom), charge = 0, multiplicity = 1:

       Center              X                  Y                   Z               Mass       
    ------------   -----------------  -----------------  -----------------  -----------------
         CR          -0.000876228198     0.058335459554    -0.012839632236    51.940506230000
         O            1.010399204467     0.813337549156    -0.918949629520    15.994914619570
         O           -1.039068712055     1.094630751925     0.499010145282    15.994914619570
         F           -0.786814526060    -1.138303676964    -0.911416812253    18.998403162730
         F            0.813347180300    -0.627516486218     1.300070170679    18.998403162730

  Running in c1 symmetry.

  Rotational constants: A =      0.15041  B =      0.13643  C =      0.12484 [cm^-1]
  Rotational constants: A =   4509.03466  B =   4090.04487  C =   3742.55770 [MHz]
  Nuclear repulsion =  352.421287229930385

  Charge       = 0
  Multiplicity = 1
  Electrons    = 58
  Nalpha       = 29
  Nbeta        = 29

  ==> Algorithm <==

  SCF Algorithm Type is DF.
  DIIS enabled.
  MOM disabled.
  Fractional occupation disabled.
  Guess Type is READ.
  Energy threshold   = 1.00e-08
  Density threshold  = 1.00e-08
  Integral threshold = 0.00e+00

  ==> Primary Basis <==

  Basis Set: DEF2-SVP
    Blend: DEF2-SVP
    Number of shells: 35
    Number of basis function: 87
    Number of Cartesian functions: 96
    Spherical Harmonics?: true
    Max angular momentum: 3

  ==> DFT Potential <==

   => Composite Functional: MY PBE <= 

    Perdew, Burke & Ernzerhof
    J. P. Perdew, K. Burke, and M. Ernzerhof, Phys. Rev. Lett. 77, 3865 (1996)
    J. P. Perdew, K. Burke, and M. Ernzerhof, Phys. Rev. Lett. 78, 1396 (1997)

    Deriv               =              1
    GGA                 =           TRUE
    Meta                =          FALSE

    Exchange Hybrid     =          FALSE
    MP2 Hybrid          =          FALSE

   => Exchange Functionals <=

    1.0000     XC_gga_x_pbe

   => Correlation Functionals <=

    1.0000     XC_gga_c_pbe

   => Molecular Quadrature <=

    Radial Scheme          =       TREUTLER
    Pruning Scheme         =           FLAT
    Nuclear Scheme         =       TREUTLER

    BS radius alpha        =              1
    Pruning alpha          =              1
    Radial Points          =             75
    Spherical Points       =            302
    Total Points           =         113250
    Total Blocks           =            926
    Max Points             =            256
    Max Functions          =             84

   => Loading Basis Set <=

    Name: (DEF2-SVP AUX)
    Role: JKFIT
    Keyword: DF_BASIS_SCF
    atoms 1   entry CR         line  1731 file /usr/share/psi4/basis/def2-svp-jkfit.gbs 
    atoms 2-3 entry O          line   323 file /usr/share/psi4/basis/def2-svp-jkfit.gbs 
    atoms 4-5 entry F          line   383 file /usr/share/psi4/basis/def2-svp-jkfit.gbs 

   => Loading Basis Set <=

    Name: DEF2-SVP
    Role: ORBITAL
    Keyword: BASIS
    atoms 1   entry CR         line   614 file /usr/share/psi4/basis/def2-svp.gbs 
    atoms 2-3 entry O          line   130 file /usr/share/psi4/basis/def2-svp.gbs 
    atoms 4-5 entry F          line   150 file /usr/share/psi4/basis/def2-svp.gbs 

  Reading orbitals from file 180, no projection.

  ==> Pre-Iterations <==

   -------------------------------------------------------
    Irrep   Nso     Nmo     Nalpha   Nbeta   Ndocc  Nsocc
   -------------------------------------------------------
     A         87      87       0       0       0       0
   -------------------------------------------------------
    Total      87      87      29      29      29       0
   -------------------------------------------------------

  ==> Integral Setup <==

  DFHelper Memory: AOs need 0.037 GiB; user supplied 5.378 GiB. Using in-core AOs.

  ==> MemDFJK: Density-Fitted J/K Matrices <==

    J tasked:                   Yes
    K tasked:                    No
    wK tasked:                   No
    OpenMP threads:               4
    Memory [MiB]:              5507
    Algorithm:                 Core
    Schwarz Cutoff:           1E-12
    Mask sparsity (%):       1.0305
    Fitting Condition:        1E-10

   => Auxiliary Basis Set <=

  Basis Set: (DEF2-SVP AUX)
    Blend: DEF2-SVP-JKFIT
    Number of shells: 158
    Number of basis function: 572
    Number of Cartesian functions: 749
    Spherical Harmonics?: true
    Max angular momentum: 6

  Cached 100.0% of DFT collocation blocks in 0.210 [GiB].

  Minimum eigenvalue in the overlap matrix is 1.8164310661E-02.
  Using Symmetric Orthogonalization.

  SCF Guess: Orbitals guess was supplied from a previous computation.

  ==> Iterations <==

                           Total Energy        Delta E     RMS |[F,P]|

   @DF-RKS iter   0: -1393.77236638435511   -1.39377e+03   6.43378e-04 
   @DF-RKS iter   1: -1393.77806994431535   -5.70356e-03   1.17379e-04 DIIS
   @DF-RKS iter   2: -1393.77657763935349    1.49230e-03   7.56079e-04 DIIS
   @DF-RKS iter   3: -1393.77798181678963   -1.40418e-03   2.30116e-04 DIIS
   @DF-RKS iter   4: -1393.77811508754235   -1.33271e-04   3.21811e-05 DIIS
   @DF-RKS iter   5: -1393.77811746953716   -2.38199e-06   8.08802e-06 DIIS
   @DF-RKS iter   6: -1393.77811764813578   -1.78599e-07   3.65056e-07 DIIS
   @DF-RKS iter   7: -1393.77811764640637    1.72940e-09   8.16260e-07 DIIS
   @DF-RKS iter   8: -1393.77811764845592   -2.04955e-09   8.70787e-08 DIIS
   @DF-RKS iter   9: -1393.77811764848184   -2.59206e-11   1.16846e-08 DIIS
   @DF-RKS iter  10: -1393.77811764847775    4.09273e-12   3.19729e-09 DIIS
  Energy and wave function converged.


  ==> Post-Iterations <==

    Orbital Energies [Eh]
    ---------------------

    Doubly Occupied:                                                      

       1A   -214.712252     2A    -24.515093     3A    -24.306765  
       4A    -24.306762     5A    -20.892804     6A    -20.892420  
       7A    -20.888574     8A    -18.844838     9A    -18.844832  
      10A     -2.917114    11A     -1.911811    12A     -1.910842  
      13A     -1.906590    14A     -1.078028    15A     -1.072789  
      16A     -0.885317    17A     -0.875406    18A     -0.471759  
      19A     -0.464875    20A     -0.449768    21A     -0.448329  
      22A     -0.447898    23A     -0.410468    24A     -0.400347  
      25A     -0.386443    26A     -0.370456    27A     -0.356678  
      28A     -0.355542    29A     -0.315676  

    Virtual:                                                              

      30A     -0.208722    31A     -0.195862    32A     -0.165532  
      33A     -0.133852    34A     -0.108048    35A     -0.009634  
      36A      0.146441    37A      0.194474    38A      0.197281  
      39A      0.200461    40A      0.539628    41A      0.544655  
      42A      0.565613    43A      0.591572    44A      0.604510  
      45A      0.862102    46A      0.880850    47A      0.920135  
      48A      0.939269    49A      0.945848    50A      0.977333  
      51A      1.067588    52A      1.093589    53A      1.135915  
      54A      1.156365    55A      1.169132    56A      1.183522  
      57A      1.294264    58A      1.361718    59A      1.599676  
      60A      1.614459    61A      2.155995    62A      2.240550  
      63A      2.282444    64A      2.318666    65A      2.447610  
      66A      2.463616    67A      2.472193    68A      2.473464  
      69A      2.491502    70A      2.517969    71A      2.620209  
      72A      2.689613    73A      2.781714    74A      2.832291  
      75A      2.908371    76A      2.938242    77A      2.954003  
      78A      2.964365    79A      3.122680    80A      3.135760  
      81A      3.177430    82A      3.180887    83A      3.195409  
      84A      3.201015    85A      3.221157    86A      3.290990  
      87A      3.428944  

    Final Occupation by Irrep:
              A 
    DOCC [    29 ]

  @DF-RKS Final Energy: -1393.77811764847775

   => Energetics <=

    Nuclear Repulsion Energy =            352.4212872299303854
    One-Electron Energy =               -2620.3254473252882235
    Two-Electron Energy =                 960.0369053892892452
    DFT Exchange-Correlation Energy =     -85.9108629424089827
    Empirical Dispersion Energy =           0.0000000000000000
    VV10 Nonlocal Energy =                  0.0000000000000000
    Total Energy =                      -1393.7781176484777461

Computation Completed


Properties will be evaluated at   0.000000,   0.000000,   0.000000 [a0]

Properties computed using the SCF density matrix

  Nuclear Dipole Moment: [e a0]
     X:    -0.0219      Y:     1.4578      Z:    -0.3209

  Electronic Dipole Moment: [e a0]
     X:     0.0239      Y:    -1.5902      Z:     0.3500

  Dipole Moment: [e a0]
     X:     0.0020      Y:    -0.1324      Z:     0.0291     Total:     0.1356

  Dipole Moment: [D]
     X:     0.0051      Y:    -0.3365      Z:     0.0741     Total:     0.3446


*** tstop() called on thinkpad at Sat Jul 10 15:10:52 2021
Module time:
	user time   =       6.91 seconds =       0.12 minutes
	system time =       0.06 seconds =       0.00 minutes
	total time  =          4 seconds =       0.07 minutes
Total time:
	user time   =      39.98 seconds =       0.67 minutes
	system time =       0.42 seconds =       0.01 minutes
	total time  =         18 seconds =       0.30 minutes

*** tstart() called on thinkpad
*** at Sat Jul 10 15:10:52 2021


         ------------------------------------------------------------
                                   SCF GRAD                          
                          Rob Parrish, Justin Turney,                
                       Andy Simmonett, and Alex Sokolov              
         ------------------------------------------------------------

  ==> Geometry <==

    Molecular point group: c1
    Full point group: C1

    Geometry (in Angstrom), charge = 0, multiplicity = 1:

       Center              X                  Y                   Z               Mass       
    ------------   -----------------  -----------------  -----------------  -----------------
         CR          -0.000876228198     0.058335459554    -0.012839632236    51.940506230000
         O            1.010399204467     0.813337549156    -0.918949629520    15.994914619570
         O           -1.039068712055     1.094630751925     0.499010145282    15.994914619570
         F           -0.786814526060    -1.138303676964    -0.911416812253    18.998403162730
         F            0.813347180300    -0.627516486218     1.300070170679    18.998403162730

  Nuclear repulsion =  352.421287229930272

  ==> Basis Set <==

  Basis Set: DEF2-SVP
    Blend: DEF2-SVP
    Number of shells: 35
    Number of basis function: 87
    Number of Cartesian functions: 96
    Spherical Harmonics?: true
    Max angular momentum: 3

  ==> DFJKGrad: Density-Fitted SCF Gradients <==

    Gradient:                    1
    J tasked:                  Yes
    K tasked:                   No
    wK tasked:                  No
    OpenMP threads:              4
    Integrals threads:           4
    Memory [MiB]:             5722
    Schwarz Cutoff:          0E+00
    Fitting Condition:       1E-10

   => Auxiliary Basis Set <=

  Basis Set: (DEF2-SVP AUX)
    Blend: DEF2-SVP-JKFIT
    Number of shells: 158
    Number of basis function: 572
    Number of Cartesian functions: 749
    Spherical Harmonics?: true
    Max angular momentum: 6

  ==> DFT Potential <==

   => Composite Functional: MY PBE <= 

    Perdew, Burke & Ernzerhof
    J. P. Perdew, K. Burke, and M. Ernzerhof, Phys. Rev. Lett. 77, 3865 (1996)
    J. P. Perdew, K. Burke, and M. Ernzerhof, Phys. Rev. Lett. 78, 1396 (1997)

    Deriv               =              1
    GGA                 =           TRUE
    Meta                =          FALSE

    Exchange Hybrid     =          FALSE
    MP2 Hybrid          =          FALSE

   => Exchange Functionals <=

    1.0000     XC_gga_x_pbe

   => Correlation Functionals <=

    1.0000     XC_gga_c_pbe

   => Molecular Quadrature <=

    Radial Scheme          =       TREUTLER
    Pruning Scheme         =           FLAT
    Nuclear Scheme         =       TREUTLER

    BS radius alpha        =              1
    Pruning alpha          =              1
    Radial Points          =             75
    Spherical Points       =            302
    Total Points           =         113250
    Total Blocks           =            926
    Max Points             =            256
    Max Functions          =             84


  -Total Gradient:
     Atom            X                  Y                   Z
    ------   -----------------  -----------------  -----------------
       1        0.000109617184    -0.007279974470     0.001602281606
       2       -0.004079894489    -0.000893691619     0.003158473437
       3        0.004123574722    -0.002019655325    -0.002517219933
       4        0.004253500300     0.006423264913     0.004873697460
       5       -0.004405134931     0.003659388953    -0.007092874575


*** tstop() called on thinkpad at Sat Jul 10 15:10:53 2021
Module time:
	user time   =       3.78 seconds =       0.06 minutes
	system time =       0.01 seconds =       0.00 minutes
	total time  =          1 seconds =       0.02 minutes
Total time:
	user time   =      43.76 seconds =       0.73 minutes
	system time =       0.43 seconds =       0.01 minutes
	total time  =         19 seconds =       0.32 minutes

			-----------------------------------------
			 OPTKING 2.0: for geometry optimizations 
			  - R.A. King,  Bethel University        
			-----------------------------------------

	Previous internal coordinate definitions found.
	---Fragment 1 Geometry and Gradient---
	 CR         -0.0016558313        0.1102380420       -0.0242633885
	 O           1.9093777738        1.5369852155       -1.7365631229
	 O          -1.9635552913        2.0685523296        0.9429925084
	 F          -1.4868639658       -2.1510821971       -1.7223281613
	 F           1.5370034157       -1.1858342982        2.4567765665
	             0.0001096172       -0.0072799745        0.0016022816
	            -0.0040798945       -0.0008936916        0.0031584734
	             0.0041235747       -0.0020196553       -0.0025172199
	             0.0042535003        0.0064232649        0.0048736975
	            -0.0044051349        0.0036593890       -0.0070928746

	---Fragment 1 Intrafragment Coordinates---
	 - Coordinate -           - BOHR/RAD -       - ANG/DEG -
	 R(1,2)           =         2.935920	       1.553622
	 R(1,3)           =         2.935920	       1.553622
	 R(1,4)           =         3.194188	       1.690291
	 R(1,5)           =         3.194188	       1.690291
	 B(2,1,3)         =         1.878601	     107.635935
	 B(2,1,4)         =         1.914148	     109.672616
	 B(2,1,5)         =         1.914149	     109.672637
	 B(3,1,4)         =         1.914147	     109.672555
	 B(3,1,5)         =         1.914147	     109.672565
	 B(4,1,5)         =         1.927988	     110.465547

	Current energy   :     -1393.7781176485

	Energy change for the previous step:
		Projected    :        -0.0008326847
		Actual       :        -0.0005900434

	Performing BFGS update.
	Previous computed or guess Hessian on step 1.
	Steps to be used in Hessian update: 2 1
	Taking RFO optimization step.
	Going to follow RFO solution 1.
	Using RFO vector 1.
	Norm of target step-size    0.03633
	Projected energy change by RFO approximation:        -0.0005288143

	Back-transformation to cartesian coordinates...
	Successfully converged to displaced geometry.

	--- Internal Coordinate Step in ANG or DEG, aJ/ANG or AJ/DEG ---
	 ---------------------------------------------------------------------------
	   Coordinate                Previous        Force       Change         New 
	   ----------                --------       ------       ------       ------
	    1 R(1,2)          =      1.553622     0.040524     0.003250     1.556872
	    2 R(1,3)          =      1.553622     0.040523     0.003250     1.556872
	    3 R(1,4)          =      1.690291     0.075211     0.012143     1.702435
	    4 R(1,5)          =      1.690291     0.075212     0.012143     1.702435
	    5 B(2,1,3)        =    107.635935     0.000333     0.710481   108.346416
	    6 B(2,1,4)        =    109.672616    -0.000066    -0.099634   109.572982
	    7 B(2,1,5)        =    109.672637    -0.000066    -0.099642   109.572995
	    8 B(3,1,4)        =    109.672555    -0.000066    -0.099627   109.572928
	    9 B(3,1,5)        =    109.672565    -0.000066    -0.099637   109.572929
	   10 B(4,1,5)        =    110.465547    -0.000061    -0.291530   110.174017
	 ---------------------------------------------------------------------------
	Successfully symmetrized geometry.

  ==> Convergence Check <==

  Measures of convergence in internal coordinates in au.
  Criteria marked as inactive (o), active & met (*), and active & unmet ( ).
  ---------------------------------------------------------------------------------------------
   Step     Total Energy     Delta E     MAX Force     RMS Force      MAX Disp      RMS Disp   
  ---------------------------------------------------------------------------------------------
    Convergence Criteria             o    2.00e-06 *    1.00e-06 *    6.00e-06 *    4.00e-06 *
  ---------------------------------------------------------------------------------------------
      3   -1393.77811765   -5.90e-04 o    9.13e-03      4.88e-03      2.29e-02      1.15e-02    ~
  ---------------------------------------------------------------------------------------------

	Writing optimization data to binary file.
	Structure for next step:
	Cartesian Geometry (in Angstrom)
	   CR    -0.0009723872   0.0647294860  -0.0142469710
	    O     1.0171702309   0.8130491192  -0.9237822725
	    O    -1.0458590028   1.0962036898   0.5035601334
	    F    -0.7910789469  -1.1435226360  -0.9165451765
	    F     0.8177270244  -0.6299760623   1.3068885287
			--------------------------
			 OPTKING Finished Execution 
			--------------------------

    Structure for next step:
    Molecular point group: c1
    Full point group: C1

    Geometry (in Angstrom), charge = 0, multiplicity = 1:

    CR          -0.000946881619     0.063033599233    -0.013873701035
    O            1.017195740407     0.811353235401    -0.923409006163
    O           -1.045833501341     1.094507807040     0.503933405429
    F           -0.791053444432    -1.145218527568    -0.916171910148
    F            0.817752533156    -0.631671951865     1.307261803869

gradient() will perform analytic gradient computation.

*** tstart() called on thinkpad
*** at Sat Jul 10 15:10:53 2021

   => Loading Basis Set <=

    Name: DEF2-SVP
    Role: ORBITAL
    Keyword: BASIS
    atoms 1   entry CR         line   614 file /usr/share/psi4/basis/def2-svp.gbs 
    atoms 2-3 entry O          line   130 file /usr/share/psi4/basis/def2-svp.gbs 
    atoms 4-5 entry F          line   150 file /usr/share/psi4/basis/def2-svp.gbs 


         ---------------------------------------------------------
                                   SCF
               by Justin Turney, Rob Parrish, Andy Simmonett
                          and Daniel G. A. Smith
                              RKS Reference
                        4 Threads,   7629 MiB Core
         ---------------------------------------------------------

  ==> Geometry <==

    Molecular point group: c1
    Full point group: C1

    Geometry (in Angstrom), charge = 0, multiplicity = 1:

       Center              X                  Y                   Z               Mass       
    ------------   -----------------  -----------------  -----------------  -----------------
         CR          -0.000946881619     0.063033599233    -0.013873701035    51.940506230000
         O            1.017195740407     0.811353235401    -0.923409006163    15.994914619570
         O           -1.045833501341     1.094507807040     0.503933405429    15.994914619570
         F           -0.791053444432    -1.145218527568    -0.916171910148    18.998403162730
         F            0.817752533156    -0.631671951865     1.307261803869    18.998403162730

  Running in c1 symmetry.

  Rotational constants: A =      0.14905  B =      0.13483  C =      0.12379 [cm^-1]
  Rotational constants: A =   4468.28054  B =   4042.23105  C =   3711.00926 [MHz]
  Nuclear repulsion =  350.772397781510904

  Charge       = 0
  Multiplicity = 1
  Electrons    = 58
  Nalpha       = 29
  Nbeta        = 29

  ==> Algorithm <==

  SCF Algorithm Type is DF.
  DIIS enabled.
  MOM disabled.
  Fractional occupation disabled.
  Guess Type is READ.
  Energy threshold   = 1.00e-08
  Density threshold  = 1.00e-08
  Integral threshold = 0.00e+00

  ==> Primary Basis <==

  Basis Set: DEF2-SVP
    Blend: DEF2-SVP
    Number of shells: 35
    Number of basis function: 87
    Number of Cartesian functions: 96
    Spherical Harmonics?: true
    Max angular momentum: 3

  ==> DFT Potential <==

   => Composite Functional: MY PBE <= 

    Perdew, Burke & Ernzerhof
    J. P. Perdew, K. Burke, and M. Ernzerhof, Phys. Rev. Lett. 77, 3865 (1996)
    J. P. Perdew, K. Burke, and M. Ernzerhof, Phys. Rev. Lett. 78, 1396 (1997)

    Deriv               =              1
    GGA                 =           TRUE
    Meta                =          FALSE

    Exchange Hybrid     =          FALSE
    MP2 Hybrid          =          FALSE

   => Exchange Functionals <=

    1.0000     XC_gga_x_pbe

   => Correlation Functionals <=

    1.0000     XC_gga_c_pbe

   => Molecular Quadrature <=

    Radial Scheme          =       TREUTLER
    Pruning Scheme         =           FLAT
    Nuclear Scheme         =       TREUTLER

    BS radius alpha        =              1
    Pruning alpha          =              1
    Radial Points          =             75
    Spherical Points       =            302
    Total Points           =         113250
    Total Blocks           =            920
    Max Points             =            256
    Max Functions          =             84

   => Loading Basis Set <=

    Name: (DEF2-SVP AUX)
    Role: JKFIT
    Keyword: DF_BASIS_SCF
    atoms 1   entry CR         line  1731 file /usr/share/psi4/basis/def2-svp-jkfit.gbs 
    atoms 2-3 entry O          line   323 file /usr/share/psi4/basis/def2-svp-jkfit.gbs 
    atoms 4-5 entry F          line   383 file /usr/share/psi4/basis/def2-svp-jkfit.gbs 

   => Loading Basis Set <=

    Name: DEF2-SVP
    Role: ORBITAL
    Keyword: BASIS
    atoms 1   entry CR         line   614 file /usr/share/psi4/basis/def2-svp.gbs 
    atoms 2-3 entry O          line   130 file /usr/share/psi4/basis/def2-svp.gbs 
    atoms 4-5 entry F          line   150 file /usr/share/psi4/basis/def2-svp.gbs 

  Reading orbitals from file 180, no projection.

  ==> Pre-Iterations <==

   -------------------------------------------------------
    Irrep   Nso     Nmo     Nalpha   Nbeta   Ndocc  Nsocc
   -------------------------------------------------------
     A         87      87       0       0       0       0
   -------------------------------------------------------
    Total      87      87      29      29      29       0
   -------------------------------------------------------

  ==> Integral Setup <==

  DFHelper Memory: AOs need 0.037 GiB; user supplied 5.379 GiB. Using in-core AOs.

  ==> MemDFJK: Density-Fitted J/K Matrices <==

    J tasked:                   Yes
    K tasked:                    No
    wK tasked:                   No
    OpenMP threads:               4
    Memory [MiB]:              5507
    Algorithm:                 Core
    Schwarz Cutoff:           1E-12
    Mask sparsity (%):       1.0305
    Fitting Condition:        1E-10

   => Auxiliary Basis Set <=

  Basis Set: (DEF2-SVP AUX)
    Blend: DEF2-SVP-JKFIT
    Number of shells: 158
    Number of basis function: 572
    Number of Cartesian functions: 749
    Spherical Harmonics?: true
    Max angular momentum: 6

  Cached 100.0% of DFT collocation blocks in 0.209 [GiB].

  Minimum eigenvalue in the overlap matrix is 1.8294944383E-02.
  Using Symmetric Orthogonalization.

  SCF Guess: Orbitals guess was supplied from a previous computation.

  ==> Iterations <==

                           Total Energy        Delta E     RMS |[F,P]|

   @DF-RKS iter   0: -1393.77153103712521   -1.39377e+03   7.34003e-04 
   @DF-RKS iter   1: -1393.77838536541344   -6.85433e-03   1.02235e-04 DIIS
   @DF-RKS iter   2: -1393.77721154641199    1.17382e-03   6.78071e-04 DIIS
   @DF-RKS iter   3: -1393.77833335650666   -1.12181e-03   1.81670e-04 DIIS
   @DF-RKS iter   4: -1393.77841677464721   -8.34181e-05   4.11322e-05 DIIS
   @DF-RKS iter   5: -1393.77842043131864   -3.65667e-06   8.05303e-06 DIIS
   @DF-RKS iter   6: -1393.77842060543321   -1.74115e-07   4.90659e-07 DIIS
   @DF-RKS iter   7: -1393.77842060602416   -5.90944e-10   1.04831e-07 DIIS
   @DF-RKS iter   8: -1393.77842060604416   -2.00089e-11   5.40187e-08 DIIS
   @DF-RKS iter   9: -1393.77842060605303   -8.86757e-12   2.50060e-08 DIIS
   @DF-RKS iter  10: -1393.77842060605781   -4.77485e-12   1.49281e-08 DIIS
   @DF-RKS iter  11: -1393.77842060605121    6.59384e-12   1.53811e-09 DIIS
  Energy and wave function converged.


  ==> Post-Iterations <==

    Orbital Energies [Eh]
    ---------------------

    Doubly Occupied:                                                      

       1A   -214.715853     2A    -24.517885     3A    -24.305776  
       4A    -24.305772     5A    -20.895718     6A    -20.895311  
       7A    -20.891431     8A    -18.846807     9A    -18.846800  
      10A     -2.918284    11A     -1.912375    12A     -1.911993  
      13A     -1.907116    14A     -1.075613    15A     -1.070661  
      16A     -0.886684    17A     -0.876495    18A     -0.469199  
      19A     -0.462782    20A     -0.447575    21A     -0.447080  
      22A     -0.446482    23A     -0.410528    24A     -0.398735  
      25A     -0.385681    26A     -0.371214    27A     -0.357061  
      28A     -0.355866    29A     -0.317315  

    Virtual:                                                              

      30A     -0.211986    31A     -0.198031    32A     -0.169698  
      33A     -0.136483    34A     -0.111643    35A     -0.009827  
      36A      0.145839    37A      0.194122    38A      0.195196  
      39A      0.198469    40A      0.539819    41A      0.544579  
      42A      0.568420    43A      0.589245    44A      0.601603  
      45A      0.863755    46A      0.880047    47A      0.918115  
      48A      0.939361    49A      0.944928    50A      0.974245  
      51A      1.068750    52A      1.092657    53A      1.131920  
      54A      1.153510    55A      1.168022    56A      1.182898  
      57A      1.293257    58A      1.364027    59A      1.601522  
      60A      1.617903    61A      2.155731    62A      2.245009  
      63A      2.283788    64A      2.316388    65A      2.444061  
      66A      2.469401    67A      2.470509    68A      2.472832  
      69A      2.495878    70A      2.517006    71A      2.622409  
      72A      2.692237    73A      2.790869    74A      2.834421  
      75A      2.911605    76A      2.939166    77A      2.954030  
      78A      2.963929    79A      3.121972    80A      3.129276  
      81A      3.161947    82A      3.170340    83A      3.181976  
      84A      3.193387    85A      3.215887    86A      3.289301  
      87A      3.423009  

    Final Occupation by Irrep:
              A 
    DOCC [    29 ]

  @DF-RKS Final Energy: -1393.77842060605121

   => Energetics <=

    Nuclear Repulsion Energy =            350.7723977815109038
    One-Electron Energy =               -2617.0188559543485098
    Two-Electron Energy =                 958.3636330600349993
    DFT Exchange-Correlation Energy =     -85.8955954932485497
    Empirical Dispersion Energy =           0.0000000000000000
    VV10 Nonlocal Energy =                  0.0000000000000000
    Total Energy =                      -1393.7784206060512133

Computation Completed


Properties will be evaluated at   0.000000,   0.000000,   0.000000 [a0]

Properties computed using the SCF density matrix

  Nuclear Dipole Moment: [e a0]
     X:    -0.0218      Y:     1.4507      Z:    -0.3193

  Electronic Dipole Moment: [e a0]
     X:     0.0234      Y:    -1.5548      Z:     0.3422

  Dipole Moment: [e a0]
     X:     0.0016      Y:    -0.1041      Z:     0.0229     Total:     0.1066

  Dipole Moment: [D]
     X:     0.0040      Y:    -0.2645      Z:     0.0582     Total:     0.2709


*** tstop() called on thinkpad at Sat Jul 10 15:10:56 2021
Module time:
	user time   =       7.17 seconds =       0.12 minutes
	system time =       0.05 seconds =       0.00 minutes
	total time  =          3 seconds =       0.05 minutes
Total time:
	user time   =      50.98 seconds =       0.85 minutes
	system time =       0.48 seconds =       0.01 minutes
	total time  =         22 seconds =       0.37 minutes

*** tstart() called on thinkpad
*** at Sat Jul 10 15:10:56 2021


         ------------------------------------------------------------
                                   SCF GRAD                          
                          Rob Parrish, Justin Turney,                
                       Andy Simmonett, and Alex Sokolov              
         ------------------------------------------------------------

  ==> Geometry <==

    Molecular point group: c1
    Full point group: C1

    Geometry (in Angstrom), charge = 0, multiplicity = 1:

       Center              X                  Y                   Z               Mass       
    ------------   -----------------  -----------------  -----------------  -----------------
         CR          -0.000946881619     0.063033599233    -0.013873701035    51.940506230000
         O            1.017195740407     0.811353235401    -0.923409006163    15.994914619570
         O           -1.045833501341     1.094507807040     0.503933405429    15.994914619570
         F           -0.791053444432    -1.145218527568    -0.916171910148    18.998403162730
         F            0.817752533156    -0.631671951865     1.307261803869    18.998403162730

  Nuclear repulsion =  350.772397781510904

  ==> Basis Set <==

  Basis Set: DEF2-SVP
    Blend: DEF2-SVP
    Number of shells: 35
    Number of basis function: 87
    Number of Cartesian functions: 96
    Spherical Harmonics?: true
    Max angular momentum: 3

  ==> DFJKGrad: Density-Fitted SCF Gradients <==

    Gradient:                    1
    J tasked:                  Yes
    K tasked:                   No
    wK tasked:                  No
    OpenMP threads:              4
    Integrals threads:           4
    Memory [MiB]:             5722
    Schwarz Cutoff:          0E+00
    Fitting Condition:       1E-10

   => Auxiliary Basis Set <=

  Basis Set: (DEF2-SVP AUX)
    Blend: DEF2-SVP-JKFIT
    Number of shells: 158
    Number of basis function: 572
    Number of Cartesian functions: 749
    Spherical Harmonics?: true
    Max angular momentum: 6

  ==> DFT Potential <==

   => Composite Functional: MY PBE <= 

    Perdew, Burke & Ernzerhof
    J. P. Perdew, K. Burke, and M. Ernzerhof, Phys. Rev. Lett. 77, 3865 (1996)
    J. P. Perdew, K. Burke, and M. Ernzerhof, Phys. Rev. Lett. 78, 1396 (1997)

    Deriv               =              1
    GGA                 =           TRUE
    Meta                =          FALSE

    Exchange Hybrid     =          FALSE
    MP2 Hybrid          =          FALSE

   => Exchange Functionals <=

    1.0000     XC_gga_x_pbe

   => Correlation Functionals <=

    1.0000     XC_gga_c_pbe

   => Molecular Quadrature <=

    Radial Scheme          =       TREUTLER
    Pruning Scheme         =           FLAT
    Nuclear Scheme         =       TREUTLER

    BS radius alpha        =              1
    Pruning alpha          =              1
    Radial Points          =             75
    Spherical Points       =            302
    Total Points           =         113250
    Total Blocks           =            920
    Max Points             =            256
    Max Functions          =             84


  -Total Gradient:
     Atom            X                  Y                   Z
    ------   -----------------  -----------------  -----------------
       1        0.000008952966    -0.000582072394     0.000127987635
       2       -0.000403551887    -0.000166259385     0.000330385676
       3        0.000410114811    -0.000277946357    -0.000232547725
       4        0.000643816714     0.000669300534     0.000797863584
       5       -0.000657783545     0.000253821538    -0.001000983948


*** tstop() called on thinkpad at Sat Jul 10 15:10:58 2021
Module time:
	user time   =       4.24 seconds =       0.07 minutes
	system time =       0.03 seconds =       0.00 minutes
	total time  =          2 seconds =       0.03 minutes
Total time:
	user time   =      55.22 seconds =       0.92 minutes
	system time =       0.51 seconds =       0.01 minutes
	total time  =         24 seconds =       0.40 minutes

			-----------------------------------------
			 OPTKING 2.0: for geometry optimizations 
			  - R.A. King,  Bethel University        
			-----------------------------------------

	Previous internal coordinate definitions found.
	---Fragment 1 Geometry and Gradient---
	 CR         -0.0017893469        0.1191162393       -0.0262174953
	 O           1.9222213654        1.5332354059       -1.7449901234
	 O          -1.9763388904        2.0683199975        0.9522961217
	 F          -1.4948743606       -2.1641493709       -1.7313139940
	 F           1.5453283261       -1.1936869902        2.4703667836
	             0.0000089530       -0.0005820724        0.0001279876
	            -0.0004035519       -0.0001662594        0.0003303857
	             0.0004101148       -0.0002779464       -0.0002325477
	             0.0006438167        0.0006693005        0.0007978636
	            -0.0006577835        0.0002538215       -0.0010009839

	---Fragment 1 Intrafragment Coordinates---
	 - Coordinate -           - BOHR/RAD -       - ANG/DEG -
	 R(1,2)           =         2.942062	       1.556872
	 R(1,3)           =         2.942062	       1.556872
	 R(1,4)           =         3.217135	       1.702435
	 R(1,5)           =         3.217135	       1.702435
	 B(2,1,3)         =         1.891002	     108.346416
	 B(2,1,4)         =         1.912409	     109.572982
	 B(2,1,5)         =         1.912410	     109.572995
	 B(3,1,4)         =         1.912408	     109.572928
	 B(3,1,5)         =         1.912408	     109.572929
	 B(4,1,5)         =         1.922899	     110.174017

	Current energy   :     -1393.7784206061

	Energy change for the previous step:
		Projected    :        -0.0005288143
		Actual       :        -0.0003029576

	Performing BFGS update.
	Previous computed or guess Hessian on step 1.
	Steps to be used in Hessian update: 3 2
	Taking RFO optimization step.
	Going to follow RFO solution 1.
	Using RFO vector 1.
	Norm of target step-size    0.00542
	Projected energy change by RFO approximation:        -0.0000114586

	Back-transformation to cartesian coordinates...
	Successfully converged to displaced geometry.

	--- Internal Coordinate Step in ANG or DEG, aJ/ANG or AJ/DEG ---
	 ---------------------------------------------------------------------------
	   Coordinate                Previous        Force       Change         New 
	   ----------                --------       ------       ------       ------
	    1 R(1,2)          =      1.556872     0.004321     0.000435     1.557307
	    2 R(1,3)          =      1.556872     0.004320     0.000435     1.557307
	    3 R(1,4)          =      1.702435     0.009959     0.001726     1.704161
	    4 R(1,5)          =      1.702435     0.009959     0.001726     1.704161
	    5 B(2,1,3)        =    108.346416     0.000013     0.029455   108.375872
	    6 B(2,1,4)        =    109.572982    -0.000015    -0.038826   109.534156
	    7 B(2,1,5)        =    109.572995    -0.000015    -0.038834   109.534161
	    8 B(3,1,4)        =    109.572928    -0.000015    -0.038780   109.534148
	    9 B(3,1,5)        =    109.572929    -0.000015    -0.038780   109.534149
	   10 B(4,1,5)        =    110.174017     0.000044     0.123884   110.297901
	 ---------------------------------------------------------------------------
	Successfully symmetrized geometry.

  ==> Convergence Check <==

  Measures of convergence in internal coordinates in au.
  Criteria marked as inactive (o), active & met (*), and active & unmet ( ).
  ---------------------------------------------------------------------------------------------
[...]

    BS radius alpha        =              1
    Pruning alpha          =              1
    Radial Points          =             75
    Spherical Points       =            302
    Total Points           =         113250
    Total Blocks           =            922
    Max Points             =            255
    Max Functions          =             84

   => Loading Basis Set <=

    Name: (DEF2-SVP AUX)
    Role: JKFIT
    Keyword: DF_BASIS_SCF
    atoms 1   entry CR         line  1731 file /usr/share/psi4/basis/def2-svp-jkfit.gbs 
    atoms 2-3 entry O          line   323 file /usr/share/psi4/basis/def2-svp-jkfit.gbs 
    atoms 4-5 entry F          line   383 file /usr/share/psi4/basis/def2-svp-jkfit.gbs 

   => Loading Basis Set <=

    Name: DEF2-SVP
    Role: ORBITAL
    Keyword: BASIS
    atoms 1   entry CR         line   614 file /usr/share/psi4/basis/def2-svp.gbs 
    atoms 2-3 entry O          line   130 file /usr/share/psi4/basis/def2-svp.gbs 
    atoms 4-5 entry F          line   150 file /usr/share/psi4/basis/def2-svp.gbs 

  Reading orbitals from file 180, no projection.

  ==> Pre-Iterations <==

   -------------------------------------------------------
    Irrep   Nso     Nmo     Nalpha   Nbeta   Ndocc  Nsocc
   -------------------------------------------------------
     A         87      87       0       0       0       0
   -------------------------------------------------------
    Total      87      87      29      29      29       0
   -------------------------------------------------------

  ==> Integral Setup <==

  DFHelper Memory: AOs need 0.037 GiB; user supplied 5.379 GiB. Using in-core AOs.

  ==> MemDFJK: Density-Fitted J/K Matrices <==

    J tasked:                   Yes
    K tasked:                    No
    wK tasked:                   No
    OpenMP threads:               4
    Memory [MiB]:              5508
    Algorithm:                 Core
    Schwarz Cutoff:           1E-12
    Mask sparsity (%):       1.0305
    Fitting Condition:        1E-10

   => Auxiliary Basis Set <=

  Basis Set: (DEF2-SVP AUX)
    Blend: DEF2-SVP-JKFIT
    Number of shells: 158
    Number of basis function: 572
    Number of Cartesian functions: 749
    Spherical Harmonics?: true
    Max angular momentum: 6

  Cached 100.0% of DFT collocation blocks in 0.209 [GiB].

  Minimum eigenvalue in the overlap matrix is 1.8303276649E-02.
  Using Symmetric Orthogonalization.

  SCF Guess: Orbitals guess was supplied from a previous computation.

  ==> Iterations <==

                           Total Energy        Delta E     RMS |[F,P]|

   @DF-RKS iter   0: -1393.77842848629348   -1.39378e+03   6.58607e-08 
   @DF-RKS iter   1: -1393.77842848131354    4.97994e-09   2.82694e-08 DIIS
   @DF-RKS iter   2: -1393.77842848117984    1.33696e-10   2.27026e-07 DIIS
   @DF-RKS iter   3: -1393.77842848130990   -1.30058e-10   4.01550e-08 DIIS
   @DF-RKS iter   4: -1393.77842848131536   -5.45697e-12   3.96652e-09 DIIS
  Energy and wave function converged.


  ==> Post-Iterations <==

    Orbital Energies [Eh]
    ---------------------

    Doubly Occupied:                                                      

       1A   -214.716342     2A    -24.518251     3A    -24.305549  
       4A    -24.305547     5A    -20.896099     6A    -20.895684  
       7A    -20.891818     8A    -18.847106     9A    -18.847099  
      10A     -2.918428    11A     -1.912416    12A     -1.912153  
      13A     -1.907174    14A     -1.075207    15A     -1.070237  
      16A     -0.886877    17A     -0.876679    18A     -0.468683  
      19A     -0.462578    20A     -0.447085    21A     -0.446845  
      22A     -0.446277    23A     -0.410473    24A     -0.398582  
      25A     -0.385583    26A     -0.371347    27A     -0.357108  
      28A     -0.355772    29A     -0.317522  

    Virtual:                                                              

      30A     -0.212280    31A     -0.198325    32A     -0.170459  
      33A     -0.136777    34A     -0.112144    35A     -0.009923  
      36A      0.145356    37A      0.193986    38A      0.195499  
      39A      0.198029    40A      0.539657    41A      0.545022  
      42A      0.569094    43A      0.589103    44A      0.600876  
      45A      0.863786    46A      0.879923    47A      0.917883  
      48A      0.939459    49A      0.944990    50A      0.973994  
      51A      1.069097    52A      1.092726    53A      1.131925  
      54A      1.151672    55A      1.167887    56A      1.183184  
      57A      1.293948    58A      1.363421    59A      1.602870  
      60A      1.616551    61A      2.155802    62A      2.245535  
      63A      2.284546    64A      2.316187    65A      2.443646  
      66A      2.470243    67A      2.470592    68A      2.472720  
      69A      2.495575    70A      2.516912    71A      2.623867  
      72A      2.692330    73A      2.791483    74A      2.834276  
      75A      2.912282    76A      2.939358    77A      2.954148  
      78A      2.963929    79A      3.123100    80A      3.127928  
      81A      3.160012    82A      3.168827    83A      3.179653  
      84A      3.192364    85A      3.215169    86A      3.288774  
      87A      3.422569  

    Final Occupation by Irrep:
              A 
    DOCC [    29 ]

  @DF-RKS Final Energy: -1393.77842848131536

   => Energetics <=

    Nuclear Repulsion Energy =            350.5184605339884456
    One-Electron Energy =               -2616.5114900519174626
    Two-Electron Energy =                 958.1080838139631624
    DFT Exchange-Correlation Energy =     -85.8934827773494618
    Empirical Dispersion Energy =           0.0000000000000000
    VV10 Nonlocal Energy =                  0.0000000000000000
    Total Energy =                      -1393.7784284813153590

Computation Completed


Properties will be evaluated at   0.000000,   0.000000,   0.000000 [a0]

Properties computed using the SCF density matrix

  Nuclear Dipole Moment: [e a0]
     X:    -0.0218      Y:     1.4502      Z:    -0.3192

  Electronic Dipole Moment: [e a0]
     X:     0.0233      Y:    -1.5537      Z:     0.3420

  Dipole Moment: [e a0]
     X:     0.0016      Y:    -0.1035      Z:     0.0228     Total:     0.1060

  Dipole Moment: [D]
     X:     0.0040      Y:    -0.2630      Z:     0.0579     Total:     0.2694


*** tstop() called on thinkpad at Sat Jul 10 15:12:06 2021
Module time:
	user time   =       4.61 seconds =       0.08 minutes
	system time =       0.03 seconds =       0.00 minutes
	total time  =          3 seconds =       0.05 minutes
Total time:
	user time   =     196.60 seconds =       3.28 minutes
	system time =       1.53 seconds =       0.03 minutes
	total time  =         92 seconds =       1.53 minutes

*** tstart() called on thinkpad
*** at Sat Jul 10 15:12:06 2021


         ------------------------------------------------------------
                                   SCF GRAD                          
                          Rob Parrish, Justin Turney,                
                       Andy Simmonett, and Alex Sokolov              
         ------------------------------------------------------------

  ==> Geometry <==

    Molecular point group: c1
    Full point group: C1

    Geometry (in Angstrom), charge = 0, multiplicity = 1:

       Center              X                  Y                   Z               Mass       
    ------------   -----------------  -----------------  -----------------  -----------------
         CR          -0.000935571864     0.062264414714    -0.013704260538    51.940506230000
         O            1.017649619349     0.810404845918    -0.923518261490    15.994914619570
         O           -1.046260703247     1.093680957824     0.504433471173    15.994914619570
         F           -0.793547984788    -1.144207542035    -0.919978628825    18.998403162730
         F            0.820193693693    -0.629085444275     1.310276255726    18.998403162730

  Nuclear repulsion =  350.518460533988502

  ==> Basis Set <==

  Basis Set: DEF2-SVP
    Blend: DEF2-SVP
    Number of shells: 35
    Number of basis function: 87
    Number of Cartesian functions: 96
    Spherical Harmonics?: true
    Max angular momentum: 3

  ==> DFJKGrad: Density-Fitted SCF Gradients <==

    Gradient:                    1
    J tasked:                  Yes
    K tasked:                   No
    wK tasked:                  No
    OpenMP threads:              4
    Integrals threads:           4
    Memory [MiB]:             5722
    Schwarz Cutoff:          0E+00
    Fitting Condition:       1E-10

   => Auxiliary Basis Set <=

  Basis Set: (DEF2-SVP AUX)
    Blend: DEF2-SVP-JKFIT
    Number of shells: 158
    Number of basis function: 572
    Number of Cartesian functions: 749
    Spherical Harmonics?: true
    Max angular momentum: 6

  ==> DFT Potential <==

   => Composite Functional: MY PBE <= 

    Perdew, Burke & Ernzerhof
    J. P. Perdew, K. Burke, and M. Ernzerhof, Phys. Rev. Lett. 77, 3865 (1996)
    J. P. Perdew, K. Burke, and M. Ernzerhof, Phys. Rev. Lett. 78, 1396 (1997)

    Deriv               =              1
    GGA                 =           TRUE
    Meta                =          FALSE

    Exchange Hybrid     =          FALSE
    MP2 Hybrid          =          FALSE

   => Exchange Functionals <=

    1.0000     XC_gga_x_pbe

   => Correlation Functionals <=

    1.0000     XC_gga_c_pbe

   => Molecular Quadrature <=

    Radial Scheme          =       TREUTLER
    Pruning Scheme         =           FLAT
    Nuclear Scheme         =       TREUTLER

    BS radius alpha        =              1
    Pruning alpha          =              1
    Radial Points          =             75
    Spherical Points       =            302
    Total Points           =         113250
    Total Blocks           =            922
    Max Points             =            255
    Max Functions          =             84


  -Total Gradient:
     Atom            X                  Y                   Z
    ------   -----------------  -----------------  -----------------
       1        0.000000351461    -0.000023224883     0.000005112508
       2        0.000001249503    -0.000020150112     0.000003749020
       3       -0.000000648624    -0.000019891443     0.000005061607
       4        0.000000600867    -0.000020189892     0.000004876139
       5        0.000000006985    -0.000020380318     0.000004055001


*** tstop() called on thinkpad at Sat Jul 10 15:12:08 2021
Module time:
	user time   =       4.15 seconds =       0.07 minutes
	system time =       0.02 seconds =       0.00 minutes
	total time  =          2 seconds =       0.03 minutes
Total time:
	user time   =     200.75 seconds =       3.35 minutes
	system time =       1.55 seconds =       0.03 minutes
	total time  =         94 seconds =       1.57 minutes

			-----------------------------------------
			 OPTKING 2.0: for geometry optimizations 
			  - R.A. King,  Bethel University        
			-----------------------------------------

	Previous internal coordinate definitions found.
	---Fragment 1 Geometry and Gradient---
	 CR         -0.0017679746        0.1176626912       -0.0258972992
	 O           1.9230790722        1.5314432095       -1.7451965861
	 O          -1.9771461850        2.0667574789        0.9532411090
	 F          -1.4995883587       -2.1622388851       -1.7385076498
	 F           1.5499414509       -1.1887991992        2.4760632720
	             0.0000003515       -0.0000232249        0.0000051125
	             0.0000012495       -0.0000201501        0.0000037490
	            -0.0000006486       -0.0000198914        0.0000050616
	             0.0000006009       -0.0000201899        0.0000048761
	             0.0000000070       -0.0000203803        0.0000040550

	---Fragment 1 Intrafragment Coordinates---
	 - Coordinate -           - BOHR/RAD -       - ANG/DEG -
	 R(1,2)           =         2.942754	       1.557238
	 R(1,3)           =         2.942754	       1.557238
	 R(1,4)           =         3.220940	       1.704448
	 R(1,5)           =         3.220940	       1.704448
	 B(2,1,3)         =         1.891533	     108.376870
	 B(2,1,4)         =         1.910900	     109.486533
	 B(2,1,5)         =         1.910901	     109.486535
	 B(3,1,4)         =         1.910900	     109.486529
	 B(3,1,5)         =         1.910900	     109.486530
	 B(4,1,5)         =         1.928306	     110.483796

	Current energy   :     -1393.7784284813

	Energy change for the previous step:
		Projected    :        -0.0000000000
		Actual       :         0.0000000029

	Performing BFGS update.
	Previous computed or guess Hessian on step 1.
	Denominators (dg)(dq) or (dq)(dq) are very small.
	 Skipping Hessian update for step 17.
	Denominators (dg)(dq) or (dq)(dq) are very small.
	 Skipping Hessian update for step 16.
	Denominators (dg)(dq) or (dq)(dq) are very small.
	 Skipping Hessian update for step 15.
	Denominators (dg)(dq) or (dq)(dq) are very small.
	 Skipping Hessian update for step 14.
	Denominators (dg)(dq) or (dq)(dq) are very small.
	 Skipping Hessian update for step 13.
	Denominators (dg)(dq) or (dq)(dq) are very small.
	 Skipping Hessian update for step 12.
	Denominators (dg)(dq) or (dq)(dq) are very small.
	 Skipping Hessian update for step 11.
	Denominators (dg)(dq) or (dq)(dq) are very small.
	 Skipping Hessian update for step 10.
	Denominators (dg)(dq) or (dq)(dq) are very small.
	 Skipping Hessian update for step 9.
	Denominators (dg)(dq) or (dq)(dq) are very small.
	 Skipping Hessian update for step 8.
	Denominators (dg)(dq) or (dq)(dq) are very small.
	 Skipping Hessian update for step 7.
	Steps to be used in Hessian update: 6 5
	Taking RFO optimization step.
	Going to follow RFO solution 1.
	Using RFO vector 1.
	Norm of target step-size    0.00000
	Projected energy change by RFO approximation:        -0.0000000000

	Back-transformation to cartesian coordinates...
	Successfully converged to displaced geometry.

	--- Internal Coordinate Step in ANG or DEG, aJ/ANG or AJ/DEG ---
	 ---------------------------------------------------------------------------
	   Coordinate                Previous        Force       Change         New 
	   ----------                --------       ------       ------       ------
	    1 R(1,2)          =      1.557238    -0.000011    -0.000001     1.557238
	    2 R(1,3)          =      1.557238    -0.000011    -0.000001     1.557238
	    3 R(1,4)          =      1.704448     0.000006     0.000000     1.704448
	    4 R(1,5)          =      1.704448     0.000006     0.000000     1.704448
	    5 B(2,1,3)        =    108.376870    -0.000000    -0.000006   108.376865
	    6 B(2,1,4)        =    109.486533     0.000000     0.000014   109.486547
	    7 B(2,1,5)        =    109.486535     0.000000     0.000013   109.486548
	    8 B(3,1,4)        =    109.486529     0.000000     0.000015   109.486543
	    9 B(3,1,5)        =    109.486530     0.000000     0.000014   109.486544
	   10 B(4,1,5)        =    110.483796    -0.000000    -0.000049   110.483747
	 ---------------------------------------------------------------------------
	Successfully symmetrized geometry.

  ==> Convergence Check <==

  Measures of convergence in internal coordinates in au.
  Criteria marked as inactive (o), active & met (*), and active & unmet ( ).
  ---------------------------------------------------------------------------------------------
   Step     Total Energy     Delta E     MAX Force     RMS Force      MAX Disp      RMS Disp   
  ---------------------------------------------------------------------------------------------
    Convergence Criteria             o    2.00e-06 *    1.00e-06 *    6.00e-06 *    4.00e-06 *
  ---------------------------------------------------------------------------------------------
     18   -1393.77842848    2.95e-09 o    1.39e-06 *    7.05e-07 *    1.01e-06 *    6.62e-07 *  ~
  ---------------------------------------------------------------------------------------------


  **** Optimization is complete! (in 18 steps) ****

  ==> Optimization Summary <==

  Measures of convergence in internal coordinates in au.
  --------------------------------------------------------------------------------------------------------------- ~
   Step         Total Energy             Delta E       MAX Force       RMS Force        MAX Disp        RMS Disp  ~
  --------------------------------------------------------------------------------------------------------------- ~
      1   -1393.776234163813  -1393.776234163813      0.02284853      0.01305058      0.06454104      0.02374701  ~
      2   -1393.777527605083     -0.001293441270      0.01660076      0.00852457      0.02035861      0.00970538  ~
      3   -1393.778117648478     -0.000590043394      0.00912903      0.00487685      0.02294744      0.01149069  ~
      4   -1393.778420606051     -0.000302957573      0.00120879      0.00063157      0.00326242      0.00171503  ~
      5   -1393.778427473574     -0.000006867523      0.00037778      0.00015250      0.00188425      0.00069156  ~
      6   -1393.778428314194     -0.000000840620      0.00015707      0.00007361      0.00131398      0.00047171  ~
      7   -1393.778428508141     -0.000000193947      0.00007098      0.00003241      0.00007138      0.00002966  ~
      8   -1393.778428505434      0.000000002707      0.00005263      0.00002443      0.00002108      0.00001055  ~
      9   -1393.778428502496      0.000000002938      0.00004070      0.00001899      0.00001724      0.00000876  ~
     10   -1393.778428497018      0.000000005477      0.00003100      0.00001452      0.00001409      0.00000727  ~
     11   -1393.778428494565      0.000000002453      0.00002304      0.00001088      0.00001130      0.00000596  ~
     12   -1393.778428490475      0.000000004090      0.00001673      0.00000793      0.00000877      0.00000480  ~
     13   -1393.778428488877      0.000000001597      0.00001178      0.00000566      0.00000663      0.00000375  ~
     14   -1393.778428486927      0.000000001950      0.00000805      0.00000390      0.00000480      0.00000283  ~
     15   -1393.778428485959      0.000000000968      0.00000541      0.00000265      0.00000344      0.00000206  ~
     16   -1393.778428484928      0.000000001031      0.00000350      0.00000174      0.00000231      0.00000146  ~
     17   -1393.778428484263      0.000000000665      0.00000222      0.00000111      0.00000152      0.00000099  ~
     18   -1393.778428481315      0.000000002947      0.00000139      0.00000070      0.00000101      0.00000066  ~
  --------------------------------------------------------------------------------------------------------------- ~

	Writing optimization data to binary file.
	Final energy is  -1393.7784284813154
	Final (previous) structure:
	Cartesian Geometry (in Angstrom)
	   CR    -0.0009355719   0.0622644145  -0.0137042605
	    O     1.0176496153   0.8104048427  -0.9235182579
	    O    -1.0462606991   1.0936809535   0.5044334692
	    F    -0.7935479817  -1.1442075375  -0.9199786252
	    F     0.8201936905  -0.6290854418   1.3102762506
	Saving final (previous) structure.
			--------------------------
			 OPTKING Finished Execution 
			--------------------------

    Final optimized geometry and variables:
    Molecular point group: c1
    Full point group: C1

    Geometry (in Angstrom), charge = 0, multiplicity = 1:

    CR          -0.000935571864     0.062264414714    -0.013704260538
    O            1.017649619349     0.810404845918    -0.923518261490
    O           -1.046260703247     1.093680957824     0.504433471173
    F           -0.793547984788    -1.144207542035    -0.919978628825
    F            0.820193693693    -0.629085444275     1.310276255726

	Removing binary optimization data file.
	Cleaning optimization helper files.

    Psi4 stopped on: Saturday, 10 July 2021 03:12PM
    Psi4 wall time for execution: 0:01:33.71

*** Psi4 exiting successfully. Buy a developer a beer!
