
    -----------------------------------------------------------------------
          Psi4: An Open-Source Ab Initio Electronic Structure Package
                               Psi4 1.3.2 release

                         Git: Rev {} zzzzzzz 


    R. M. Parrish, L. A. Burns, D. G. A. Smith, A. C. Simmonett,
    A. E. DePrince III, E. G. Hohenstein, U. Bozkaya, A. Yu. Sokolov,
    R. Di Remigio, R. M. Richard, J. F. Gonthier, A. M. James,
    H. R. McAlexander, A. Kumar, M. Saitow, X. Wang, B. P. Pritchard,
    P. Verma, H. F. Schaefer III, K. Patkowski, R. A. King, E. F. Valeev,
    F. A. Evangelista, J. M. Turney, T. D. Crawford, and C. D. Sherrill,
    J. Chem. Theory Comput. 13(7) pp 3185--3197 (2017).
    (doi: 10.1021/acs.jctc.7b00174)


                         Additional Contributions by
    P. Kraus, H. Kruse, M. H. Lechner, M. C. Schieber, R. A. Shaw,
    A. Alenaizan, R. Galvelis, Z. L. Glick, S. Lehtola, and J. P. Misiewicz

    -----------------------------------------------------------------------


    Psi4 started on: Saturday, 10 July 2021 03:12PM

    Process ID: 1833034
    Host:       thinkpad
    PSIDATADIR: /usr/share/psi4
    Memory:     500.0 MiB
    Threads:    4
    
  ==> Input File <==

--------------------------------------------------------------------------
memory 8 gb

molecule {
symmetry c1
Cr        0.48028725377749    0.32716919378518    0.12128381663197
O         1.51332165941332    1.03448648135578   -0.78955553051410
O        -0.57831537187616    1.32157128739802    0.65757817076212
F        -0.29602430869141   -0.85637252313759   -0.76598418135575
F         1.28459076737678   -0.35182443940140    1.41848772447575
}

set basis def2-TZVP
set geom_maxiter 250

# Use a (75,302) quadrature grid
set dft_radial_points 75
set dft_spherical_points 302

# Very tight geometry optimization
set g_convergence gau_verytight
# Increase allowed number of geometry optimization steps
set geom_maxiter 250

# Use the Hueckel type guess
set guess huckel

my_dft = {
    "name": "my pbe",
    "x_functionals": {"gga_x_pbe": {}},
    "c_functionals": {"gga_c_pbe": {}}
}
optimize('scf', dft_functional=my_dft)
--------------------------------------------------------------------------

  Memory set to   7.451 GiB by Python driver.
gradient() will perform analytic gradient computation.

*** tstart() called on thinkpad
*** at Sat Jul 10 15:12:08 2021

   => Loading Basis Set <=

    Name: DEF2-TZVP
    Role: ORBITAL
    Keyword: BASIS
    atoms 1   entry CR         line   872 file /usr/share/psi4/basis/def2-tzvp.gbs 
    atoms 2-3 entry O          line   189 file /usr/share/psi4/basis/def2-tzvp.gbs 
    atoms 4-5 entry F          line   222 file /usr/share/psi4/basis/def2-tzvp.gbs 


         ---------------------------------------------------------
                                   SCF
               by Justin Turney, Rob Parrish, Andy Simmonett
                          and Daniel G. A. Smith
                              RKS Reference
                        4 Threads,   7629 MiB Core
         ---------------------------------------------------------

  ==> Geometry <==

    Molecular point group: c1
    Full point group: C1

    Geometry (in Angstrom), charge = 0, multiplicity = 1:

       Center              X                  Y                   Z               Mass       
    ------------   -----------------  -----------------  -----------------  -----------------
         CR          -0.001007494106     0.066977222278    -0.014740872913    51.940506230000
         O            1.032026911530     0.774294509849    -0.925580220059    15.994914619570
         O           -1.059610119760     1.061379315891     0.521553481217    15.994914619570
         F           -0.777319056575    -1.116564494645    -0.902008870901    18.998403162730
         F            0.803296019493    -0.612016410908     1.282463034931    18.998403162730

  Running in c1 symmetry.

  Rotational constants: A =      0.15233  B =      0.13609  C =      0.12992 [cm^-1]
  Rotational constants: A =   4566.71939  B =   4079.72696  C =   3895.02954 [MHz]
  Nuclear repulsion =  355.181605515257786

  Charge       = 0
  Multiplicity = 1
  Electrons    = 58
  Nalpha       = 29
  Nbeta        = 29

  ==> Algorithm <==

  SCF Algorithm Type is DF.
  DIIS enabled.
  MOM disabled.
  Fractional occupation disabled.
  Guess Type is HUCKEL.
  Energy threshold   = 1.00e-08
  Density threshold  = 1.00e-08
  Integral threshold = 0.00e+00

  ==> Primary Basis <==

  Basis Set: DEF2-TZVP
    Blend: DEF2-TZVP
    Number of shells: 59
    Number of basis function: 169
    Number of Cartesian functions: 196
    Spherical Harmonics?: true
    Max angular momentum: 3

  ==> DFT Potential <==

   => Composite Functional: MY PBE <= 

    Perdew, Burke & Ernzerhof
    J. P. Perdew, K. Burke, and M. Ernzerhof, Phys. Rev. Lett. 77, 3865 (1996)
    J. P. Perdew, K. Burke, and M. Ernzerhof, Phys. Rev. Lett. 78, 1396 (1997)

    Deriv               =              1
    GGA                 =           TRUE
    Meta                =          FALSE

    Exchange Hybrid     =          FALSE
    MP2 Hybrid          =          FALSE

   => Exchange Functionals <=

    1.0000     XC_gga_x_pbe

   => Correlation Functionals <=

    1.0000     XC_gga_c_pbe

   => Molecular Quadrature <=

    Radial Scheme          =       TREUTLER
    Pruning Scheme         =           FLAT
    Nuclear Scheme         =       TREUTLER

    BS radius alpha        =              1
    Pruning alpha          =              1
    Radial Points          =             75
    Spherical Points       =            302
    Total Points           =         113250
    Total Blocks           =            920
    Max Points             =            256
    Max Functions          =            163

   => Loading Basis Set <=

    Name: (DEF2-TZVP AUX)
    Role: JKFIT
    Keyword: DF_BASIS_SCF
    atoms 1   entry CR         line  1731 file /usr/share/psi4/basis/def2-tzvp-jkfit.gbs 
    atoms 2-3 entry O          line   323 file /usr/share/psi4/basis/def2-tzvp-jkfit.gbs 
    atoms 4-5 entry F          line   383 file /usr/share/psi4/basis/def2-tzvp-jkfit.gbs 

  ==> Pre-Iterations <==

   -------------------------------------------------------
    Irrep   Nso     Nmo     Nalpha   Nbeta   Ndocc  Nsocc
   -------------------------------------------------------
     A        169     169       0       0       0       0
   -------------------------------------------------------
    Total     169     169      29      29      29       0
   -------------------------------------------------------

  ==> Integral Setup <==

  DFHelper Memory: AOs need 0.130 GiB; user supplied 5.214 GiB. Using in-core AOs.

  ==> MemDFJK: Density-Fitted J/K Matrices <==

    J tasked:                   Yes
    K tasked:                    No
    wK tasked:                   No
    OpenMP threads:               4
    Memory [MiB]:              5339
    Algorithm:                 Core
    Schwarz Cutoff:           1E-12
    Mask sparsity (%):       2.9341
    Fitting Condition:        1E-10

   => Auxiliary Basis Set <=

  Basis Set: (DEF2-TZVP AUX)
    Blend: DEF2-TZVP-JKFIT
    Number of shells: 158
    Number of basis function: 572
    Number of Cartesian functions: 749
    Spherical Harmonics?: true
    Max angular momentum: 6

  Cached 100.0% of DFT collocation blocks in 0.374 [GiB].

  Minimum eigenvalue in the overlap matrix is 1.9987387532E-03.
  Using Symmetric Orthogonalization.

  SCF Guess: Huckel guess via on-the-fly atomic UHF (doi:10.1021/acs.jctc.8b01089).

  ==> Iterations <==

                           Total Energy        Delta E     RMS |[F,P]|

   @DF-RKS iter   1: -1392.53178556722310   -1.39253e+03   1.49672e-02 DIIS
   @DF-RKS iter   2: -1366.89951465600279    2.56323e+01   5.14517e-02 DIIS
   @DF-RKS iter   3: -1387.57510502595278   -2.06756e+01   3.09998e-02 DIIS
   @DF-RKS iter   4: -1386.56447368285012    1.01063e+00   3.05367e-02 DIIS
   @DF-RKS iter   5: -1393.64009311837322   -7.07562e+00   1.01891e-02 DIIS
   @DF-RKS iter   6: -1394.35753127956718   -7.17438e-01   5.02238e-04 DIIS
   @DF-RKS iter   7: -1394.35101016028148    6.52112e-03   9.92678e-04 DIIS
   @DF-RKS iter   8: -1394.36029533998703   -9.28518e-03   2.79439e-04 DIIS
   @DF-RKS iter   9: -1394.36082538747269   -5.30047e-04   5.33519e-05 DIIS
   @DF-RKS iter  10: -1394.36083764018758   -1.22527e-05   3.65606e-05 DIIS
   @DF-RKS iter  11: -1394.36084785725507   -1.02171e-05   2.05499e-05 DIIS
   @DF-RKS iter  12: -1394.36085199567742   -4.13842e-06   7.42629e-06 DIIS
   @DF-RKS iter  13: -1394.36085240421585   -4.08538e-07   7.71002e-07 DIIS
   @DF-RKS iter  14: -1394.36085240864077   -4.42492e-09   3.20244e-07 DIIS
   @DF-RKS iter  15: -1394.36085240951888   -8.78117e-10   2.74516e-08 DIIS
   @DF-RKS iter  16: -1394.36085240952298   -4.09273e-12   1.22950e-08 DIIS
   @DF-RKS iter  17: -1394.36085240952116    1.81899e-12   2.12155e-09 DIIS
  Energy and wave function converged.


  ==> Post-Iterations <==

    Orbital Energies [Eh]
    ---------------------

    Doubly Occupied:                                                      

       1A   -214.647954     2A    -24.467076     3A    -24.305286  
       4A    -24.305280     5A    -20.833479     6A    -20.833162  
       7A    -20.829057     8A    -18.837752     9A    -18.837752  
      10A     -2.906740    11A     -1.902296    12A     -1.902008  
      13A     -1.899051    14A     -1.110597    15A     -1.105112  
      16A     -0.901647    17A     -0.889494    18A     -0.482128  
      19A     -0.476030    20A     -0.458677    21A     -0.457770  
      22A     -0.454312    23A     -0.417651    24A     -0.412681  
      25A     -0.393459    26A     -0.372276    27A     -0.361847  
      28A     -0.359877    29A     -0.320095  

    Virtual:                                                              

      30A     -0.210304    31A     -0.192826    32A     -0.164102  
      33A     -0.125927    34A     -0.109520    35A     -0.015968  
      36A      0.098272    37A      0.098622    38A      0.100140  
      39A      0.104935    40A      0.105245    41A      0.162336  
      42A      0.166359    43A      0.172488    44A      0.175308  
      45A      0.399970    46A      0.410770    47A      0.414055  
      48A      0.459923    49A      0.467533    50A      0.504114  
      51A      0.507863    52A      0.510579    53A      0.515777  
      54A      0.520669    55A      0.535325    56A      0.548230  
      57A      0.576027    58A      0.622386    59A      0.662197  
      60A      0.677053    61A      0.691308    62A      0.780451  
      63A      0.850039    64A      0.992238    65A      0.995539  
      66A      1.155085    67A      1.190486    68A      1.217870  
      69A      1.268144    70A      1.314724    71A      1.344920  
      72A      1.453824    73A      1.460898    74A      1.482889  
      75A      1.483324    76A      1.547528    77A      1.667791  
      78A      1.684348    79A      1.719682    80A      1.789758  
      81A      1.808028    82A      1.897913    83A      1.904873  
      84A      1.951044    85A      1.967359    86A      2.076860  
      87A      2.086264    88A      2.090472    89A      2.244757  
      90A      2.272593    91A      2.302405    92A      2.327041  
      93A      2.414298    94A      2.436803    95A      2.501435  
      96A      2.579760    97A      2.594705    98A      2.642188  
      99A      2.722784   100A      2.779675   101A      2.832089  
     102A      2.856676   103A      2.912937   104A      2.933633  
     105A      2.975111   106A      3.027380   107A      3.057933  
     108A      3.159345   109A      3.161587   110A      3.164752  
     111A      3.187850   112A      3.674465   113A      3.709111  
     114A      3.922515   115A      3.934716   116A      4.205803  
     117A      4.245787   118A      4.921950   119A      4.928681  
     120A      4.936876   121A      4.936920   122A      4.939869  
     123A      4.943915   124A      4.967840   125A      4.985653  
     126A      5.226283   127A      5.228429   128A      5.243125  
     129A      5.273027   130A      5.778528   131A      5.866173  
     132A      6.021390   133A      6.051360   134A      6.107029  
     135A      6.130385   136A      6.244871   137A      6.308702  
     138A      6.356531   139A      6.446567   140A      6.659506  
     141A      6.662445   142A      6.663145   143A      6.671156  
     144A      6.675410   145A      6.675532   146A      6.675660  
     147A      6.676752   148A      6.694873   149A      6.706114  
     150A      6.732351   151A      6.736919   152A      6.866416  
     153A      6.874710   154A      6.915106   155A      6.989904  
     156A      8.041294   157A      8.062743   158A      8.106849  
     159A      8.116431   160A      8.138548   161A      8.203396  
     162A      8.310554   163A      8.322099   164A      8.632108  
     165A      8.687906   166A     43.114412   167A     43.136559  
     168A     56.436864   169A     56.529941  

    Final Occupation by Irrep:
              A 
    DOCC [    29 ]

  @DF-RKS Final Energy: -1394.36085240952116

   => Energetics <=

    Nuclear Repulsion Energy =            355.1816055152577860
    One-Electron Energy =               -2627.2419329350504995
    Two-Electron Energy =                 963.7386125997801400
    DFT Exchange-Correlation Energy =     -86.0391375895083428
    Empirical Dispersion Energy =           0.0000000000000000
    VV10 Nonlocal Energy =                  0.0000000000000000
    Total Energy =                      -1394.3608524095211578

Computation Completed


Properties will be evaluated at   0.000000,   0.000000,   0.000000 [a0]

Properties computed using the SCF density matrix

  Nuclear Dipole Moment: [e a0]
     X:    -0.0209      Y:     1.3901      Z:    -0.3060

  Electronic Dipole Moment: [e a0]
     X:     0.0228      Y:    -1.5156      Z:     0.3336

  Dipole Moment: [e a0]
     X:     0.0019      Y:    -0.1255      Z:     0.0276     Total:     0.1286

  Dipole Moment: [D]
     X:     0.0048      Y:    -0.3191      Z:     0.0702     Total:     0.3267


*** tstop() called on thinkpad at Sat Jul 10 15:12:16 2021
Module time:
	user time   =      20.20 seconds =       0.34 minutes
	system time =       0.33 seconds =       0.01 minutes
	total time  =          8 seconds =       0.13 minutes
Total time:
	user time   =      20.20 seconds =       0.34 minutes
	system time =       0.33 seconds =       0.01 minutes
	total time  =          8 seconds =       0.13 minutes

*** tstart() called on thinkpad
*** at Sat Jul 10 15:12:16 2021


         ------------------------------------------------------------
                                   SCF GRAD                          
                          Rob Parrish, Justin Turney,                
                       Andy Simmonett, and Alex Sokolov              
         ------------------------------------------------------------

  ==> Geometry <==

    Molecular point group: c1
    Full point group: C1

    Geometry (in Angstrom), charge = 0, multiplicity = 1:

       Center              X                  Y                   Z               Mass       
    ------------   -----------------  -----------------  -----------------  -----------------
         CR          -0.001007494106     0.066977222278    -0.014740872913    51.940506230000
         O            1.032026911530     0.774294509849    -0.925580220059    15.994914619570
         O           -1.059610119760     1.061379315891     0.521553481217    15.994914619570
         F           -0.777319056575    -1.116564494645    -0.902008870901    18.998403162730
         F            0.803296019493    -0.612016410908     1.282463034931    18.998403162730

  Nuclear repulsion =  355.181605515257786

  ==> Basis Set <==

  Basis Set: DEF2-TZVP
    Blend: DEF2-TZVP
    Number of shells: 59
    Number of basis function: 169
    Number of Cartesian functions: 196
    Spherical Harmonics?: true
    Max angular momentum: 3

  ==> DFJKGrad: Density-Fitted SCF Gradients <==

    Gradient:                    1
    J tasked:                  Yes
    K tasked:                   No
    wK tasked:                  No
    OpenMP threads:              4
    Integrals threads:           4
    Memory [MiB]:             5722
    Schwarz Cutoff:          0E+00
    Fitting Condition:       1E-10

   => Auxiliary Basis Set <=

  Basis Set: (DEF2-TZVP AUX)
    Blend: DEF2-TZVP-JKFIT
    Number of shells: 158
    Number of basis function: 572
    Number of Cartesian functions: 749
    Spherical Harmonics?: true
    Max angular momentum: 6

  ==> DFT Potential <==

   => Composite Functional: MY PBE <= 

    Perdew, Burke & Ernzerhof
    J. P. Perdew, K. Burke, and M. Ernzerhof, Phys. Rev. Lett. 77, 3865 (1996)
    J. P. Perdew, K. Burke, and M. Ernzerhof, Phys. Rev. Lett. 78, 1396 (1997)

    Deriv               =              1
    GGA                 =           TRUE
    Meta                =          FALSE

    Exchange Hybrid     =          FALSE
    MP2 Hybrid          =          FALSE

   => Exchange Functionals <=

    1.0000     XC_gga_x_pbe

   => Correlation Functionals <=

    1.0000     XC_gga_c_pbe

   => Molecular Quadrature <=

    Radial Scheme          =       TREUTLER
    Pruning Scheme         =           FLAT
    Nuclear Scheme         =       TREUTLER

    BS radius alpha        =              1
    Pruning alpha          =              1
    Radial Points          =             75
    Spherical Points       =            302
    Total Points           =         113250
    Total Blocks           =            920
    Max Points             =            256
    Max Functions          =            163


  -Total Gradient:
     Atom            X                  Y                   Z
    ------   -----------------  -----------------  -----------------
       1        0.000017185781    -0.001161043194     0.000255759634
       2       -0.014371979459    -0.017689116949     0.014484834271
       3        0.014964113505    -0.021715118623    -0.005811999251
       4        0.015832600030     0.025419604202     0.017840862149
       5       -0.016441481048     0.015117485012    -0.026763267901


*** tstop() called on thinkpad at Sat Jul 10 15:12:19 2021
Module time:
	user time   =       8.30 seconds =       0.14 minutes
	system time =       0.08 seconds =       0.00 minutes
	total time  =          3 seconds =       0.05 minutes
Total time:
	user time   =      28.50 seconds =       0.47 minutes
	system time =       0.41 seconds =       0.01 minutes
	total time  =         11 seconds =       0.18 minutes

			-----------------------------------------
			 OPTKING 2.0: for geometry optimizations 
			  - R.A. King,  Bethel University        
			-----------------------------------------

	Internal coordinates to be generated automatically.
	Detected frag 1 with atoms:  1 2 3 4 5
	---Fragment 1 Bond Connectivity---
	 1 : 2 3 4 5
	 2 : 1
	 3 : 1
	 4 : 1
	 5 : 1

	---Fragment 1 Geometry and Gradient---
	 CR         -0.0019038879        0.1265686067       -0.0278562127
	 O           1.9502482169        1.4632045641       -1.7490931231
	 O          -2.0023729261        2.0057162223        0.9855932393
	 F          -1.4689201290       -2.1100010963       -1.7045497287
	 F           1.5180094745       -1.1565434009        2.4235039020
	             0.0000171858       -0.0011610432        0.0002557596
	            -0.0143719795       -0.0176891169        0.0144848343
	             0.0149641135       -0.0217151186       -0.0058119993
	             0.0158326000        0.0254196042        0.0178408621
	            -0.0164414810        0.0151174850       -0.0267632679

	Previous optimization step data not found.  Starting new optimization.

	---Fragment 1 Intrafragment Coordinates---
	 - Coordinate -           - BOHR/RAD -       - ANG/DEG -
	 R(1,2)           =         2.925773	       1.548253
	 R(1,3)           =         2.925774	       1.548253
	 R(1,4)           =         3.156847	       1.670531
	 R(1,5)           =         3.156846	       1.670531
	 B(2,1,3)         =         1.946113	     111.504060
	 B(2,1,4)         =         1.897868	     108.739823
	 B(2,1,5)         =         1.897867	     108.739770
	 B(3,1,4)         =         1.897872	     108.740061
	 B(3,1,5)         =         1.897872	     108.740055
	 B(4,1,5)         =         1.926457	     110.377858

	Current energy   :     -1394.3608524095

	Generating empirical Hessian (Schlegel '84) for each fragment.
	Taking RFO optimization step.
	Going to follow RFO solution 1.
	Using RFO vector 1.
	Norm of target step-size    0.07830
	Projected energy change by RFO approximation:        -0.0031586009

	Back-transformation to cartesian coordinates...
	Successfully converged to displaced geometry.

	--- Internal Coordinate Step in ANG or DEG, aJ/ANG or AJ/DEG ---
	 ---------------------------------------------------------------------------
	   Coordinate                Previous        Force       Change         New 
	   ----------                --------       ------       ------       ------
	    1 R(1,2)          =      1.548253     0.215762     0.005038     1.553290
	    2 R(1,3)          =      1.548253     0.215760     0.005038     1.553290
	    3 R(1,4)          =      1.670531     0.287086     0.013693     1.684224
	    4 R(1,5)          =      1.670531     0.287088     0.013693     1.684224
	    5 B(2,1,3)        =    111.504060    -0.001177    -3.486875   108.017185
	    6 B(2,1,4)        =    108.739823     0.000287     0.839982   109.579805
	    7 B(2,1,5)        =    108.739770     0.000287     0.840031   109.579801
	    8 B(3,1,4)        =    108.740061     0.000287     0.839785   109.579846
	    9 B(3,1,5)        =    108.740055     0.000287     0.839799   109.579854
	   10 B(4,1,5)        =    110.377858     0.000026     0.085750   110.463608
	 ---------------------------------------------------------------------------
	Successfully symmetrized geometry.

  ==> Convergence Check <==

  Measures of convergence in internal coordinates in au.
  Criteria marked as inactive (o), active & met (*), and active & unmet ( ).
  --------------------------------------------------------------------------------------------- ~
   Step     Total Energy     Delta E     MAX Force     RMS Force      MAX Disp      RMS Disp    ~
  --------------------------------------------------------------------------------------------- ~
    Convergence Criteria             o    2.00e-06 *    1.00e-06 *    6.00e-06 *    4.00e-06 *  ~
  --------------------------------------------------------------------------------------------- ~
      1   -1394.36085241   -1.39e+03 o    3.48e-02      2.02e-02      6.09e-02      2.47e-02    ~
  ---------------------------------------------------------------------------------------------

	Writing optimization data to binary file.
	Structure for next step:
	Cartesian Geometry (in Angstrom)
	   CR    -0.0008025168   0.0534182608  -0.0117572306
	    O     1.0128062676   0.8038388648  -0.9184970501
	    O    -1.0411990647   1.0857561481   0.5026014586
	    F    -0.7839087768  -1.1389454784  -0.9070915776
	    F     0.8104903513  -0.6299976534   1.2964309521
			--------------------------
			 OPTKING Finished Execution 
			--------------------------

    Structure for next step:
    Molecular point group: c1
    Full point group: C1

    Geometry (in Angstrom), charge = 0, multiplicity = 1:

    CR          -0.000877840272     0.058409868102    -0.012855717978
    O            1.012730948090     0.808830475067    -0.919595541004
    O           -1.041274392297     1.090747759471     0.501502973256
    F           -0.783984103310    -1.133953875768    -0.908190068464
    F            0.810415031049    -0.625006048727     1.295332469904

gradient() will perform analytic gradient computation.

*** tstart() called on thinkpad
*** at Sat Jul 10 15:12:19 2021

   => Loading Basis Set <=

    Name: DEF2-TZVP
    Role: ORBITAL
    Keyword: BASIS
    atoms 1   entry CR         line   872 file /usr/share/psi4/basis/def2-tzvp.gbs 
    atoms 2-3 entry O          line   189 file /usr/share/psi4/basis/def2-tzvp.gbs 
    atoms 4-5 entry F          line   222 file /usr/share/psi4/basis/def2-tzvp.gbs 


         ---------------------------------------------------------
                                   SCF
               by Justin Turney, Rob Parrish, Andy Simmonett
                          and Daniel G. A. Smith
                              RKS Reference
                        4 Threads,   7629 MiB Core
         ---------------------------------------------------------

  ==> Geometry <==

    Molecular point group: c1
    Full point group: C1

    Geometry (in Angstrom), charge = 0, multiplicity = 1:

       Center              X                  Y                   Z               Mass       
    ------------   -----------------  -----------------  -----------------  -----------------
         CR          -0.000877840272     0.058409868102    -0.012855717978    51.940506230000
         O            1.012730948090     0.808830475067    -0.919595541004    15.994914619570
         O           -1.041274392297     1.090747759471     0.501502973256    15.994914619570
         F           -0.783984103310    -1.133953875768    -0.908190068464    18.998403162730
         F            0.810415031049    -0.625006048727     1.295332469904    18.998403162730

  Running in c1 symmetry.

  Rotational constants: A =      0.15079  B =      0.13677  C =      0.12580 [cm^-1]
  Rotational constants: A =   4520.54351  B =   4100.12320  C =   3771.46572 [MHz]
  Nuclear repulsion =  353.110716578630957

  Charge       = 0
  Multiplicity = 1
  Electrons    = 58
  Nalpha       = 29
  Nbeta        = 29

  ==> Algorithm <==

  SCF Algorithm Type is DF.
  DIIS enabled.
  MOM disabled.
  Fractional occupation disabled.
  Guess Type is READ.
  Energy threshold   = 1.00e-08
  Density threshold  = 1.00e-08
  Integral threshold = 0.00e+00

  ==> Primary Basis <==

  Basis Set: DEF2-TZVP
    Blend: DEF2-TZVP
    Number of shells: 59
    Number of basis function: 169
    Number of Cartesian functions: 196
    Spherical Harmonics?: true
    Max angular momentum: 3

  ==> DFT Potential <==

   => Composite Functional: MY PBE <= 

    Perdew, Burke & Ernzerhof
    J. P. Perdew, K. Burke, and M. Ernzerhof, Phys. Rev. Lett. 77, 3865 (1996)
    J. P. Perdew, K. Burke, and M. Ernzerhof, Phys. Rev. Lett. 78, 1396 (1997)

    Deriv               =              1
    GGA                 =           TRUE
    Meta                =          FALSE

    Exchange Hybrid     =          FALSE
    MP2 Hybrid          =          FALSE

   => Exchange Functionals <=

    1.0000     XC_gga_x_pbe

   => Correlation Functionals <=

    1.0000     XC_gga_c_pbe

   => Molecular Quadrature <=

    Radial Scheme          =       TREUTLER
    Pruning Scheme         =           FLAT
    Nuclear Scheme         =       TREUTLER

    BS radius alpha        =              1
    Pruning alpha          =              1
    Radial Points          =             75
    Spherical Points       =            302
    Total Points           =         113250
    Total Blocks           =            923
    Max Points             =            256
    Max Functions          =            162

   => Loading Basis Set <=

    Name: (DEF2-TZVP AUX)
    Role: JKFIT
    Keyword: DF_BASIS_SCF
    atoms 1   entry CR         line  1731 file /usr/share/psi4/basis/def2-tzvp-jkfit.gbs 
    atoms 2-3 entry O          line   323 file /usr/share/psi4/basis/def2-tzvp-jkfit.gbs 
    atoms 4-5 entry F          line   383 file /usr/share/psi4/basis/def2-tzvp-jkfit.gbs 

   => Loading Basis Set <=

    Name: DEF2-TZVP
    Role: ORBITAL
    Keyword: BASIS
    atoms 1   entry CR         line   872 file /usr/share/psi4/basis/def2-tzvp.gbs 
    atoms 2-3 entry O          line   189 file /usr/share/psi4/basis/def2-tzvp.gbs 
    atoms 4-5 entry F          line   222 file /usr/share/psi4/basis/def2-tzvp.gbs 

  Reading orbitals from file 180, no projection.

  ==> Pre-Iterations <==

   -------------------------------------------------------
    Irrep   Nso     Nmo     Nalpha   Nbeta   Ndocc  Nsocc
   -------------------------------------------------------
     A        169     169       0       0       0       0
   -------------------------------------------------------
    Total     169     169      29      29      29       0
   -------------------------------------------------------

  ==> Integral Setup <==

  DFHelper Memory: AOs need 0.129 GiB; user supplied 5.215 GiB. Using in-core AOs.

  ==> MemDFJK: Density-Fitted J/K Matrices <==

    J tasked:                   Yes
    K tasked:                    No
    wK tasked:                   No
    OpenMP threads:               4
    Memory [MiB]:              5339
    Algorithm:                 Core
    Schwarz Cutoff:           1E-12
    Mask sparsity (%):       3.1301
    Fitting Condition:        1E-10

   => Auxiliary Basis Set <=

  Basis Set: (DEF2-TZVP AUX)
    Blend: DEF2-TZVP-JKFIT
    Number of shells: 158
    Number of basis function: 572
    Number of Cartesian functions: 749
    Spherical Harmonics?: true
    Max angular momentum: 6

  Cached 100.0% of DFT collocation blocks in 0.373 [GiB].

  Minimum eigenvalue in the overlap matrix is 1.9435839049E-03.
  Using Symmetric Orthogonalization.

  SCF Guess: Orbitals guess was supplied from a previous computation.

  ==> Iterations <==

                           Total Energy        Delta E     RMS |[F,P]|

   @DF-RKS iter   0: -1394.34927157468792   -1.39435e+03   7.16225e-04 
   @DF-RKS iter   1: -1394.36202488652430   -1.27533e-02   3.91633e-04 DIIS
   @DF-RKS iter   2: -1394.27712957210656    8.48953e-02   3.27017e-03 DIIS
   @DF-RKS iter   3: -1394.36291666911438   -8.57871e-02   1.98705e-04 DIIS
   @DF-RKS iter   4: -1394.36329273316278   -3.76064e-04   5.33915e-05 DIIS
   @DF-RKS iter   5: -1394.36331248589181   -1.97527e-05   2.98069e-05 DIIS
   @DF-RKS iter   6: -1394.36331779408169   -5.30819e-06   1.25699e-05 DIIS
   @DF-RKS iter   7: -1394.36331892679232   -1.13271e-06   2.93775e-06 DIIS
   @DF-RKS iter   8: -1394.36331895514218   -2.83499e-08   2.25834e-06 DIIS
   @DF-RKS iter   9: -1394.36331900664686   -5.15047e-08   2.09651e-07 DIIS
   @DF-RKS iter  10: -1394.36331900698315   -3.36286e-10   4.89604e-08 DIIS
   @DF-RKS iter  11: -1394.36331900700156   -1.84173e-11   2.90205e-09 DIIS
  Energy and wave function converged.


  ==> Post-Iterations <==

    Orbital Energies [Eh]
    ---------------------

    Doubly Occupied:                                                      

       1A   -214.651323     2A    -24.469552     3A    -24.303638  
       4A    -24.303633     5A    -20.835843     6A    -20.835748  
       7A    -20.831861     8A    -18.840143     9A    -18.840141  
      10A     -2.907790    11A     -1.903722    12A     -1.902229  
      13A     -1.898998    14A     -1.107888    15A     -1.102633  
      16A     -0.901930    17A     -0.891806    18A     -0.479673  
      19A     -0.472932    20A     -0.455976    21A     -0.454661  
      22A     -0.452211    23A     -0.417054    24A     -0.410674  
      25A     -0.394065    26A     -0.374623    27A     -0.361902  
      28A     -0.361767    29A     -0.319689  

    Virtual:                                                              

      30A     -0.210811    31A     -0.197151    32A     -0.166680  
      33A     -0.135030    34A     -0.110758    35A     -0.017272  
      36A      0.098004    37A      0.098173    38A      0.100751  
      39A      0.104578    40A      0.104741    41A      0.159480  
      42A      0.164892    43A      0.171168    44A      0.177680  
      45A      0.401280    46A      0.409171    47A      0.411841  
      48A      0.459391    49A      0.465716    50A      0.502106  
      51A      0.504698    52A      0.511526    53A      0.511530  
      54A      0.522465    55A      0.533812    56A      0.548832  
      57A      0.582128    58A      0.621504    59A      0.660344  
      60A      0.675157    61A      0.691115    62A      0.782954  
      63A      0.848382    64A      0.992243    65A      0.995617  
      66A      1.148826    67A      1.181264    68A      1.217074  
      69A      1.259799    70A      1.319697    71A      1.340839  
      72A      1.453693    73A      1.471135    74A      1.479008  
      75A      1.479724    76A      1.535219    77A      1.650272  
      78A      1.684297    79A      1.723504    80A      1.798880  
      81A      1.805186    82A      1.900500    83A      1.903259  
      84A      1.953657    85A      1.962918    86A      2.064301  
      87A      2.069207    88A      2.097278    89A      2.240496  
      90A      2.272900    91A      2.294979    92A      2.321054  
      93A      2.410191    94A      2.443685    95A      2.489390  
      96A      2.569054    97A      2.575062    98A      2.620894  
      99A      2.724627   100A      2.763284   101A      2.819908  
     102A      2.869453   103A      2.927205   104A      2.932879  
     105A      2.971085   106A      3.023314   107A      3.041174  
     108A      3.153409   109A      3.159518   110A      3.160050  
     111A      3.179618   112A      3.669113   113A      3.690671  
     114A      3.917903   115A      3.920198   116A      4.173706  
     117A      4.214492   118A      4.919614   119A      4.926881  
     120A      4.935941   121A      4.935946   122A      4.938820  
     123A      4.942767   124A      4.964833   125A      4.981650  
     126A      5.208081   127A      5.220712   128A      5.244719  
     129A      5.262282   130A      5.786194   131A      5.828506  
     132A      6.023266   133A      6.050604   134A      6.105265  
     135A      6.123773   136A      6.249084   137A      6.309625  
     138A      6.340792   139A      6.439718   140A      6.662638  
     141A      6.664415   142A      6.665486   143A      6.672676  
     144A      6.678173   145A      6.678222   146A      6.678320  
     147A      6.679243   148A      6.692341   149A      6.701620  
     150A      6.728704   151A      6.730815   152A      6.848219  
     153A      6.864718   154A      6.901515   155A      6.985329  
     156A      8.042704   157A      8.064169   158A      8.103318  
     159A      8.117686   160A      8.136432   161A      8.194748  
     162A      8.295363   163A      8.317434   164A      8.611095  
     165A      8.668218   166A     43.115397   167A     43.120557  
     168A     56.434178   169A     56.512730  

    Final Occupation by Irrep:
              A 
    DOCC [    29 ]

  @DF-RKS Final Energy: -1394.36331900700156

   => Energetics <=

    Nuclear Repulsion Energy =            353.1107165786309565
    One-Electron Energy =               -2623.1097348703283387
    Two-Electron Energy =                 961.6565043242466118
    DFT Exchange-Correlation Energy =     -86.0208050395511776
    Empirical Dispersion Energy =           0.0000000000000000
    VV10 Nonlocal Energy =                  0.0000000000000000
    Total Energy =                      -1394.3633190070015644

Computation Completed


Properties will be evaluated at   0.000000,   0.000000,   0.000000 [a0]

Properties computed using the SCF density matrix

  Nuclear Dipole Moment: [e a0]
     X:    -0.0218      Y:     1.4510      Z:    -0.3194

  Electronic Dipole Moment: [e a0]
     X:     0.0235      Y:    -1.5663      Z:     0.3447

  Dipole Moment: [e a0]
     X:     0.0017      Y:    -0.1153      Z:     0.0254     Total:     0.1181

  Dipole Moment: [D]
     X:     0.0044      Y:    -0.2930      Z:     0.0645     Total:     0.3001


*** tstop() called on thinkpad at Sat Jul 10 15:12:25 2021
Module time:
	user time   =      15.77 seconds =       0.26 minutes
	system time =       0.14 seconds =       0.00 minutes
	total time  =          6 seconds =       0.10 minutes
Total time:
	user time   =      44.32 seconds =       0.74 minutes
	system time =       0.55 seconds =       0.01 minutes
	total time  =         17 seconds =       0.28 minutes

*** tstart() called on thinkpad
*** at Sat Jul 10 15:12:25 2021


         ------------------------------------------------------------
                                   SCF GRAD                          
                          Rob Parrish, Justin Turney,                
                       Andy Simmonett, and Alex Sokolov              
         ------------------------------------------------------------

  ==> Geometry <==

    Molecular point group: c1
    Full point group: C1

    Geometry (in Angstrom), charge = 0, multiplicity = 1:

       Center              X                  Y                   Z               Mass       
    ------------   -----------------  -----------------  -----------------  -----------------
         CR          -0.000877840272     0.058409868102    -0.012855717978    51.940506230000
         O            1.012730948090     0.808830475067    -0.919595541004    15.994914619570
         O           -1.041274392297     1.090747759471     0.501502973256    15.994914619570
         F           -0.783984103310    -1.133953875768    -0.908190068464    18.998403162730
         F            0.810415031049    -0.625006048727     1.295332469904    18.998403162730

  Nuclear repulsion =  353.110716578631127

  ==> Basis Set <==

  Basis Set: DEF2-TZVP
    Blend: DEF2-TZVP
    Number of shells: 59
    Number of basis function: 169
    Number of Cartesian functions: 196
    Spherical Harmonics?: true
    Max angular momentum: 3

  ==> DFJKGrad: Density-Fitted SCF Gradients <==

    Gradient:                    1
    J tasked:                  Yes
    K tasked:                   No
    wK tasked:                  No
    OpenMP threads:              4
    Integrals threads:           4
    Memory [MiB]:             5722
    Schwarz Cutoff:          0E+00
    Fitting Condition:       1E-10

   => Auxiliary Basis Set <=

  Basis Set: (DEF2-TZVP AUX)
    Blend: DEF2-TZVP-JKFIT
    Number of shells: 158
    Number of basis function: 572
    Number of Cartesian functions: 749
    Spherical Harmonics?: true
    Max angular momentum: 6

  ==> DFT Potential <==

   => Composite Functional: MY PBE <= 

    Perdew, Burke & Ernzerhof
    J. P. Perdew, K. Burke, and M. Ernzerhof, Phys. Rev. Lett. 77, 3865 (1996)
    J. P. Perdew, K. Burke, and M. Ernzerhof, Phys. Rev. Lett. 78, 1396 (1997)

    Deriv               =              1
    GGA                 =           TRUE
    Meta                =          FALSE

    Exchange Hybrid     =          FALSE
    MP2 Hybrid          =          FALSE

   => Exchange Functionals <=

    1.0000     XC_gga_x_pbe

   => Correlation Functionals <=

    1.0000     XC_gga_c_pbe

   => Molecular Quadrature <=

    Radial Scheme          =       TREUTLER
    Pruning Scheme         =           FLAT
    Nuclear Scheme         =       TREUTLER

    BS radius alpha        =              1
    Pruning alpha          =              1
    Radial Points          =             75
    Spherical Points       =            302
    Total Points           =         113250
    Total Blocks           =            923
    Max Points             =            256
    Max Functions          =            162


  -Total Gradient:
     Atom            X                  Y                   Z
    ------   -----------------  -----------------  -----------------
       1        0.000132228538    -0.008793964789     0.001935655249
       2       -0.012715096039    -0.008125688948     0.011077044012
       3        0.013012297793    -0.011656716522    -0.006722933719
       4        0.011335213750     0.017933654777     0.012825793984
       5       -0.011763409514     0.010560459186    -0.019097454599


*** tstop() called on thinkpad at Sat Jul 10 15:12:28 2021
Module time:
	user time   =       9.20 seconds =       0.15 minutes
	system time =       0.09 seconds =       0.00 minutes
	total time  =          3 seconds =       0.05 minutes
Total time:
	user time   =      53.53 seconds =       0.89 minutes
	system time =       0.64 seconds =       0.01 minutes
	total time  =         20 seconds =       0.33 minutes

			-----------------------------------------
			 OPTKING 2.0: for geometry optimizations 
			  - R.A. King,  Bethel University        
			-----------------------------------------

	Previous internal coordinate definitions found.
	---Fragment 1 Geometry and Gradient---
	 CR         -0.0016588777        0.1103786537       -0.0242937861
	 O           1.9137841307        1.5284680798       -1.7377837187
	 O          -1.9677234229        2.0612145374        0.9477032706
	 F          -1.4815152420       -2.1428622641       -1.7162304993
	 F           1.5314624566       -1.1810902588        2.4478236095
	             0.0001322285       -0.0087939648        0.0019356552
	            -0.0127150960       -0.0081256889        0.0110770440
	             0.0130122978       -0.0116567165       -0.0067229337
	             0.0113352138        0.0179336548        0.0128257940
	            -0.0117634095        0.0105604592       -0.0190974546

	---Fragment 1 Intrafragment Coordinates---
	 - Coordinate -           - BOHR/RAD -       - ANG/DEG -
	 R(1,2)           =         2.935293	       1.553290
	 R(1,3)           =         2.935294	       1.553290
	 R(1,4)           =         3.182722	       1.684224
	 R(1,5)           =         3.182722	       1.684224
	 B(2,1,3)         =         1.885256	     108.017185
	 B(2,1,4)         =         1.912528	     109.579805
	 B(2,1,5)         =         1.912528	     109.579801
	 B(3,1,4)         =         1.912529	     109.579846
	 B(3,1,5)         =         1.912529	     109.579854
	 B(4,1,5)         =         1.927954	     110.463608

	Current energy   :     -1394.3633190070

	Energy change for the previous step:
		Projected    :        -0.0031586009
		Actual       :        -0.0024665975
	Energy ratio indicates good step: Trust radius increased to 1.000e+00.


	Performing BFGS update.
	Previous computed or guess Hessian on step 1.
	Steps to be used in Hessian update: 1
	Taking RFO optimization step.
	Going to follow RFO solution 1.
	Using RFO vector 1.
	Norm of target step-size    0.07126
	Projected energy change by RFO approximation:        -0.0029599448

	Back-transformation to cartesian coordinates...
	Successfully converged to displaced geometry.

	--- Internal Coordinate Step in ANG or DEG, aJ/ANG or AJ/DEG ---
	 ---------------------------------------------------------------------------
	   Coordinate                Previous        Force       Change         New 
	   ----------                --------       ------       ------       ------
	    1 R(1,2)          =      1.553290     0.153894     0.008818     1.562109
	    2 R(1,3)          =      1.553290     0.153893     0.008818     1.562109
	    3 R(1,4)          =      1.684224     0.204276     0.023911     1.708135
	    4 R(1,5)          =      1.684224     0.204278     0.023911     1.708135
	    5 B(2,1,3)        =    108.017185     0.000224    -0.651833   107.365352
	    6 B(2,1,4)        =    109.579805    -0.000015     0.347732   109.927537
	    7 B(2,1,5)        =    109.579801    -0.000015     0.347771   109.927572
	    8 B(3,1,4)        =    109.579846    -0.000015     0.347577   109.927423
	    9 B(3,1,5)        =    109.579854    -0.000015     0.347583   109.927437
	   10 B(4,1,5)        =    110.463608    -0.000154    -0.729815   109.733794
	 ---------------------------------------------------------------------------
	Successfully symmetrized geometry.

  ==> Convergence Check <==

  Measures of convergence in internal coordinates in au.
  Criteria marked as inactive (o), active & met (*), and active & unmet ( ).
  ---------------------------------------------------------------------------------------------
   Step     Total Energy     Delta E     MAX Force     RMS Force      MAX Disp      RMS Disp   
  ---------------------------------------------------------------------------------------------
    Convergence Criteria             o    2.00e-06 *    1.00e-06 *    6.00e-06 *    4.00e-06 *
  ---------------------------------------------------------------------------------------------
      2   -1394.36331901   -2.47e-03 o    2.48e-02      1.39e-02      4.52e-02      2.25e-02    ~
  ---------------------------------------------------------------------------------------------

	Writing optimization data to binary file.
	Structure for next step:
	Cartesian Geometry (in Angstrom)
	   CR    -0.0009366643   0.0623922310  -0.0137328098
	    O     1.0140365580   0.8246682749  -0.9241986629
	    O    -1.0430618120   1.1070080804   0.4990406350
	    F    -0.7914407077  -1.1544605158  -0.9148979521
	    F     0.8184122693  -0.6405798932   1.3099829056
			--------------------------
			 OPTKING Finished Execution 
			--------------------------

    Structure for next step:
    Molecular point group: c1
    Full point group: C1

    Geometry (in Angstrom), charge = 0, multiplicity = 1:

    CR          -0.000932639968     0.062106970269    -0.013669885252
    O            1.014040586297     0.824383017159    -0.924135741903
    O           -1.043057791783     1.106722823810     0.499103561580
    F           -0.791436686431    -1.154745781338    -0.914835031074
    F            0.818416296870    -0.640865156678     1.310045835403

gradient() will perform analytic gradient computation.

*** tstart() called on thinkpad
*** at Sat Jul 10 15:12:28 2021

   => Loading Basis Set <=

    Name: DEF2-TZVP
    Role: ORBITAL
    Keyword: BASIS
    atoms 1   entry CR         line   872 file /usr/share/psi4/basis/def2-tzvp.gbs 
    atoms 2-3 entry O          line   189 file /usr/share/psi4/basis/def2-tzvp.gbs 
    atoms 4-5 entry F          line   222 file /usr/share/psi4/basis/def2-tzvp.gbs 


         ---------------------------------------------------------
                                   SCF
               by Justin Turney, Rob Parrish, Andy Simmonett
                          and Daniel G. A. Smith
                              RKS Reference
                        4 Threads,   7629 MiB Core
         ---------------------------------------------------------

  ==> Geometry <==

    Molecular point group: c1
    Full point group: C1

    Geometry (in Angstrom), charge = 0, multiplicity = 1:

       Center              X                  Y                   Z               Mass       
    ------------   -----------------  -----------------  -----------------  -----------------
         CR          -0.000932639968     0.062106970269    -0.013669885252    51.940506230000
         O            1.014040586297     0.824383017159    -0.924135741903    15.994914619570
         O           -1.043057791783     1.106722823810     0.499103561580    15.994914619570
         F           -0.791436686431    -1.154745781338    -0.914835031074    18.998403162730
         F            0.818416296870    -0.640865156678     1.310045835403    18.998403162730

  Running in c1 symmetry.

  Rotational constants: A =      0.14751  B =      0.13505  C =      0.12238 [cm^-1]
  Rotational constants: A =   4422.15952  B =   4048.58536  C =   3668.74921 [MHz]
  Nuclear repulsion =  349.600539681739122

  Charge       = 0
  Multiplicity = 1
  Electrons    = 58
  Nalpha       = 29
  Nbeta        = 29

  ==> Algorithm <==

  SCF Algorithm Type is DF.
  DIIS enabled.
  MOM disabled.
  Fractional occupation disabled.
  Guess Type is READ.
  Energy threshold   = 1.00e-08
  Density threshold  = 1.00e-08
  Integral threshold = 0.00e+00

  ==> Primary Basis <==

  Basis Set: DEF2-TZVP
    Blend: DEF2-TZVP
    Number of shells: 59
    Number of basis function: 169
    Number of Cartesian functions: 196
    Spherical Harmonics?: true
    Max angular momentum: 3

  ==> DFT Potential <==

   => Composite Functional: MY PBE <= 

    Perdew, Burke & Ernzerhof
    J. P. Perdew, K. Burke, and M. Ernzerhof, Phys. Rev. Lett. 77, 3865 (1996)
    J. P. Perdew, K. Burke, and M. Ernzerhof, Phys. Rev. Lett. 78, 1396 (1997)

    Deriv               =              1
    GGA                 =           TRUE
    Meta                =          FALSE

    Exchange Hybrid     =          FALSE
    MP2 Hybrid          =          FALSE

   => Exchange Functionals <=

    1.0000     XC_gga_x_pbe

   => Correlation Functionals <=

    1.0000     XC_gga_c_pbe

   => Molecular Quadrature <=

    Radial Scheme          =       TREUTLER
    Pruning Scheme         =           FLAT
    Nuclear Scheme         =       TREUTLER

    BS radius alpha        =              1
    Pruning alpha          =              1
    Radial Points          =             75
    Spherical Points       =            302
    Total Points           =         113250
    Total Blocks           =            920
    Max Points             =            256
    Max Functions          =            163

   => Loading Basis Set <=

    Name: (DEF2-TZVP AUX)
    Role: JKFIT
    Keyword: DF_BASIS_SCF
    atoms 1   entry CR         line  1731 file /usr/share/psi4/basis/def2-tzvp-jkfit.gbs 
    atoms 2-3 entry O          line   323 file /usr/share/psi4/basis/def2-tzvp-jkfit.gbs 
    atoms 4-5 entry F          line   383 file /usr/share/psi4/basis/def2-tzvp-jkfit.gbs 

   => Loading Basis Set <=

    Name: DEF2-TZVP
    Role: ORBITAL
    Keyword: BASIS
    atoms 1   entry CR         line   872 file /usr/share/psi4/basis/def2-tzvp.gbs 
    atoms 2-3 entry O          line   189 file /usr/share/psi4/basis/def2-tzvp.gbs 
    atoms 4-5 entry F          line   222 file /usr/share/psi4/basis/def2-tzvp.gbs 

  Reading orbitals from file 180, no projection.

  ==> Pre-Iterations <==

   -------------------------------------------------------
    Irrep   Nso     Nmo     Nalpha   Nbeta   Ndocc  Nsocc
   -------------------------------------------------------
     A        169     169       0       0       0       0
   -------------------------------------------------------
    Total     169     169      29      29      29       0
   -------------------------------------------------------

  ==> Integral Setup <==

  DFHelper Memory: AOs need 0.129 GiB; user supplied 5.216 GiB. Using in-core AOs.

  ==> MemDFJK: Density-Fitted J/K Matrices <==

    J tasked:                   Yes
    K tasked:                    No
    wK tasked:                   No
    OpenMP threads:               4
    Memory [MiB]:              5341
    Algorithm:                 Core
    Schwarz Cutoff:           1E-12
    Mask sparsity (%):       3.3822
    Fitting Condition:        1E-10

   => Auxiliary Basis Set <=

  Basis Set: (DEF2-TZVP AUX)
    Blend: DEF2-TZVP-JKFIT
    Number of shells: 158
    Number of basis function: 572
    Number of Cartesian functions: 749
    Spherical Harmonics?: true
    Max angular momentum: 6

  Cached 100.0% of DFT collocation blocks in 0.372 [GiB].

  Minimum eigenvalue in the overlap matrix is 1.9368476294E-03.
  Using Symmetric Orthogonalization.

  SCF Guess: Orbitals guess was supplied from a previous computation.

  ==> Iterations <==

                           Total Energy        Delta E     RMS |[F,P]|

   @DF-RKS iter   0: -1394.34434196792586   -1.39434e+03   7.10059e-04 
   @DF-RKS iter   1: -1394.36334388717182   -1.90019e-02   4.77305e-04 DIIS
   @DF-RKS iter   2: -1394.23128644846201    1.32057e-01   4.07430e-03 DIIS
   @DF-RKS iter   3: -1394.36500363623554   -1.33717e-01   1.34208e-04 DIIS
   @DF-RKS iter   4: -1394.36510645444423   -1.02818e-04   9.12050e-05 DIIS
   @DF-RKS iter   5: -1394.36516173281916   -5.52784e-05   5.48570e-05 DIIS
   @DF-RKS iter   6: -1394.36518303529010   -2.13025e-05   1.21332e-05 DIIS
   @DF-RKS iter   7: -1394.36518408024881   -1.04496e-06   3.22082e-06 DIIS
   @DF-RKS iter   8: -1394.36518408723396   -6.98515e-09   2.91693e-06 DIIS
   @DF-RKS iter   9: -1394.36518418096398   -9.37300e-08   1.24077e-07 DIIS
   @DF-RKS iter  10: -1394.36518418101036   -4.63842e-11   1.03840e-07 DIIS
   @DF-RKS iter  11: -1394.36518418109085   -8.04903e-11   4.42889e-08 DIIS
   @DF-RKS iter  12: -1394.36518418110745   -1.65983e-11   3.88557e-09 DIIS
  Energy and wave function converged.


  ==> Post-Iterations <==

    Orbital Energies [Eh]
    ---------------------

    Doubly Occupied:                                                      

       1A   -214.657230     2A    -24.474260     3A    -24.301689  
       4A    -24.301685     5A    -20.840635     6A    -20.840608  
       7A    -20.836755     8A    -18.844238     9A    -18.844236  
      10A     -2.910272    11A     -1.905547    12A     -1.904038  
      13A     -1.900228    14A     -1.103673    15A     -1.098989  
      16A     -0.904152    17A     -0.894440    18A     -0.475423  
      19A     -0.468510    20A     -0.452365    21A     -0.450043  
      22A     -0.449980    23A     -0.417151    24A     -0.407576  
      25A     -0.393692    26A     -0.377074    27A     -0.363590  
      28A     -0.362638    29A     -0.321747  

    Virtual:                                                              

      30A     -0.216361    31A     -0.202873    32A     -0.174189  
      33A     -0.143956    34A     -0.117283    35A     -0.018186  
      36A      0.097751    37A      0.097896    38A      0.100397  
      39A      0.104291    40A      0.104371    41A      0.157512  
      42A      0.163243    43A      0.168881    44A      0.177059  
      45A      0.400028    46A      0.407359    47A      0.409270  
      48A      0.457571    49A      0.465217    50A      0.499862  
      51A      0.500362    52A      0.508880    53A      0.508902  
      54A      0.522147    55A      0.534188    56A      0.549252  
      57A      0.581996    58A      0.621524    59A      0.658420  
      60A      0.674010    61A      0.691283    62A      0.785684  
      63A      0.847258    64A      0.987245    65A      1.000831  
      66A      1.137290    67A      1.172387    68A      1.212326  
      69A      1.245211    70A      1.317591    71A      1.339000  
      72A      1.451379    73A      1.464547    74A      1.472624  
      75A      1.478168    76A      1.525732    77A      1.629433  
      78A      1.684426    79A      1.731132    80A      1.797718  
      81A      1.802919    82A      1.901195    83A      1.905617  
      84A      1.952980    85A      1.961302    86A      2.054681  
      87A      2.055958    88A      2.085075    89A      2.237432  
      90A      2.269464    91A      2.282720    92A      2.306517  
      93A      2.406862    94A      2.442152    95A      2.473043  
      96A      2.544795    97A      2.567087    98A      2.600976  
      99A      2.723116   100A      2.740628   101A      2.809951  
     102A      2.863848   103A      2.923254   104A      2.928142  
     105A      2.965310   106A      3.014899   107A      3.029074  
     108A      3.139566   109A      3.151318   110A      3.155539  
     111A      3.171665   112A      3.650554   113A      3.662708  
     114A      3.898678   115A      3.901654   116A      4.118012  
     117A      4.163249   118A      4.916943   119A      4.924215  
     120A      4.933991   121A      4.933996   122A      4.936682  
     123A      4.940299   124A      4.959562   125A      4.975950  
     126A      5.187924   127A      5.203550   128A      5.235425  
     129A      5.245247   130A      5.763620   131A      5.792024  
     132A      6.019746   133A      6.046110   134A      6.098282  
     135A      6.119592   136A      6.241370   137A      6.300775  
     138A      6.326468   139A      6.429279   140A      6.667184  
     141A      6.667880   142A      6.669870   143A      6.676123  
     144A      6.682305   145A      6.682331   146A      6.682363  
     147A      6.683145   148A      6.687283   149A      6.696827  
     150A      6.723304   151A      6.723743   152A      6.816207  
     153A      6.848324   154A      6.886036   155A      6.966499  
     156A      8.044822   157A      8.065927   158A      8.101963  
     159A      8.116364   160A      8.127949   161A      8.186192  
     162A      8.278451   163A      8.306674   164A      8.577125  
     165A      8.634242   166A     43.099208   167A     43.106136  
     168A     56.422433   169A     56.489141  

    Final Occupation by Irrep:
              A 
    DOCC [    29 ]

  @DF-RKS Final Energy: -1394.36518418110745

   => Energetics <=

    Nuclear Repulsion Energy =            349.6005396817391215
    One-Electron Energy =               -2616.0770516563420642
    Two-Electron Energy =                 958.0999249596679874
    DFT Exchange-Correlation Energy =     -85.9885971661723545
    Empirical Dispersion Energy =           0.0000000000000000
    VV10 Nonlocal Energy =                  0.0000000000000000
    Total Energy =                      -1394.3651841811074519

Computation Completed


Properties will be evaluated at   0.000000,   0.000000,   0.000000 [a0]

Properties computed using the SCF density matrix

  Nuclear Dipole Moment: [e a0]
     X:    -0.0221      Y:     1.4719      Z:    -0.3240

  Electronic Dipole Moment: [e a0]
     X:     0.0231      Y:    -1.5358      Z:     0.3380

  Dipole Moment: [e a0]
     X:     0.0010      Y:    -0.0638      Z:     0.0140     Total:     0.0654

  Dipole Moment: [D]
     X:     0.0024      Y:    -0.1622      Z:     0.0357     Total:     0.1661


*** tstop() called on thinkpad at Sat Jul 10 15:12:33 2021
Module time:
	user time   =      14.82 seconds =       0.25 minutes
	system time =       0.13 seconds =       0.00 minutes
	total time  =          5 seconds =       0.08 minutes
Total time:
	user time   =      68.40 seconds =       1.14 minutes
	system time =       0.77 seconds =       0.01 minutes
	total time  =         25 seconds =       0.42 minutes

*** tstart() called on thinkpad
*** at Sat Jul 10 15:12:33 2021


         ------------------------------------------------------------
                                   SCF GRAD                          
                          Rob Parrish, Justin Turney,                
                       Andy Simmonett, and Alex Sokolov              
         ------------------------------------------------------------

  ==> Geometry <==

    Molecular point group: c1
    Full point group: C1

    Geometry (in Angstrom), charge = 0, multiplicity = 1:

       Center              X                  Y                   Z               Mass       
    ------------   -----------------  -----------------  -----------------  -----------------
         CR          -0.000932639968     0.062106970269    -0.013669885252    51.940506230000
         O            1.014040586297     0.824383017159    -0.924135741903    15.994914619570
         O           -1.043057791783     1.106722823810     0.499103561580    15.994914619570
         F           -0.791436686431    -1.154745781338    -0.914835031074    18.998403162730
         F            0.818416296870    -0.640865156678     1.310045835403    18.998403162730

  Nuclear repulsion =  349.600539681739122

  ==> Basis Set <==

  Basis Set: DEF2-TZVP
    Blend: DEF2-TZVP
    Number of shells: 59
    Number of basis function: 169
    Number of Cartesian functions: 196
    Spherical Harmonics?: true
    Max angular momentum: 3

  ==> DFJKGrad: Density-Fitted SCF Gradients <==

    Gradient:                    1
    J tasked:                  Yes
    K tasked:                   No
    wK tasked:                  No
    OpenMP threads:              4
    Integrals threads:           4
    Memory [MiB]:             5722
    Schwarz Cutoff:          0E+00
    Fitting Condition:       1E-10

   => Auxiliary Basis Set <=

  Basis Set: (DEF2-TZVP AUX)
    Blend: DEF2-TZVP-JKFIT
    Number of shells: 158
    Number of basis function: 572
    Number of Cartesian functions: 749
    Spherical Harmonics?: true
    Max angular momentum: 6

  ==> DFT Potential <==

   => Composite Functional: MY PBE <= 

    Perdew, Burke & Ernzerhof
    J. P. Perdew, K. Burke, and M. Ernzerhof, Phys. Rev. Lett. 77, 3865 (1996)
    J. P. Perdew, K. Burke, and M. Ernzerhof, Phys. Rev. Lett. 78, 1396 (1997)

    Deriv               =              1
    GGA                 =           TRUE
    Meta                =          FALSE

    Exchange Hybrid     =          FALSE
    MP2 Hybrid          =          FALSE

   => Exchange Functionals <=

    1.0000     XC_gga_x_pbe

   => Correlation Functionals <=

    1.0000     XC_gga_c_pbe

   => Molecular Quadrature <=

    Radial Scheme          =       TREUTLER
    Pruning Scheme         =           FLAT
    Nuclear Scheme         =       TREUTLER

    BS radius alpha        =              1
    Pruning alpha          =              1
    Radial Points          =             75
    Spherical Points       =            302
    Total Points           =         113250
    Total Blocks           =            920
    Max Points             =            256
    Max Functions          =            163


  -Total Gradient:
     Atom            X                  Y                   Z
    ------   -----------------  -----------------  -----------------
       1        0.000067542851    -0.004471410183     0.000983988543
       2       -0.005933152980    -0.001423571009     0.004621800041
       3        0.006000375550    -0.003061522436    -0.003634583289
       4        0.003942836436     0.005719833646     0.004564301730
       5       -0.004076442491     0.003159996223    -0.006518633123


*** tstop() called on thinkpad at Sat Jul 10 15:12:36 2021
Module time:
	user time   =       8.32 seconds =       0.14 minutes
	system time =       0.07 seconds =       0.00 minutes
	total time  =          3 seconds =       0.05 minutes
Total time:
	user time   =      76.72 seconds =       1.28 minutes
	system time =       0.84 seconds =       0.01 minutes
	total time  =         28 seconds =       0.47 minutes

			-----------------------------------------
			 OPTKING 2.0: for geometry optimizations 
			  - R.A. King,  Bethel University        
			-----------------------------------------

	Previous internal coordinate definitions found.
	---Fragment 1 Geometry and Gradient---
	 CR         -0.0017624341        0.1173651643       -0.0258323393
	 O           1.9162589882        1.5578581249       -1.7463634549
	 O          -1.9710935595        2.0914030338        0.9431690396
	 F          -1.4955985830       -2.1821532713       -1.7287876587
	 F           1.5465826577       -1.2110596295        2.4756278407
	             0.0000675429       -0.0044714102        0.0009839885
	            -0.0059331530       -0.0014235710        0.0046218000
	             0.0060003755       -0.0030615224       -0.0036345833
	             0.0039428364        0.0057198336        0.0045643017
	            -0.0040764425        0.0031599962       -0.0065186331

	---Fragment 1 Intrafragment Coordinates---
	 - Coordinate -           - BOHR/RAD -       - ANG/DEG -
	 R(1,2)           =         2.951958	       1.562109
	 R(1,3)           =         2.951958	       1.562109
	 R(1,4)           =         3.227908	       1.708135
	 R(1,5)           =         3.227908	       1.708135
	 B(2,1,3)         =         1.873879	     107.365352
	 B(2,1,4)         =         1.918597	     109.927537
	 B(2,1,5)         =         1.918598	     109.927572
	 B(3,1,4)         =         1.918595	     109.927423
	 B(3,1,5)         =         1.918596	     109.927437
	 B(4,1,5)         =         1.915216	     109.733794

	Current energy   :     -1394.3651841811

	Energy change for the previous step:
		Projected    :        -0.0029599448
		Actual       :        -0.0018651741

	Performing BFGS update.
	Previous computed or guess Hessian on step 1.
	Steps to be used in Hessian update: 2 1
	Taking RFO optimization step.
	Going to follow RFO solution 1.
	Using RFO vector 1.
	Norm of target step-size    0.03497
	Projected energy change by RFO approximation:        -0.0005237969

	Back-transformation to cartesian coordinates...
	Successfully converged to displaced geometry.

	--- Internal Coordinate Step in ANG or DEG, aJ/ANG or AJ/DEG ---
	 ---------------------------------------------------------------------------
	   Coordinate                Previous        Force       Change         New 
	   ----------                --------       ------       ------       ------
	    1 R(1,2)          =      1.562109     0.059601     0.004246     1.566355
	    2 R(1,3)          =      1.562109     0.059600     0.004246     1.566355
	    3 R(1,4)          =      1.708135     0.068517     0.010834     1.718970
	    4 R(1,5)          =      1.708135     0.068517     0.010834     1.718970
	    5 B(2,1,3)        =    107.365352     0.000457     0.837890   108.203242
	    6 B(2,1,4)        =    109.927537    -0.000103    -0.152786   109.774752
	    7 B(2,1,5)        =    109.927572    -0.000103    -0.152805   109.774767
	    8 B(3,1,4)        =    109.927423    -0.000103    -0.152732   109.774691
	    9 B(3,1,5)        =    109.927437    -0.000103    -0.152746   109.774691
	   10 B(4,1,5)        =    109.733794    -0.000039    -0.213232   109.520562
	 ---------------------------------------------------------------------------
	Successfully symmetrized geometry.

  ==> Convergence Check <==

  Measures of convergence in internal coordinates in au.
  Criteria marked as inactive (o), active & met (*), and active & unmet ( ).
  ---------------------------------------------------------------------------------------------
   Step     Total Energy     Delta E     MAX Force     RMS Force      MAX Disp      RMS Disp   
  ---------------------------------------------------------------------------------------------
    Convergence Criteria             o    2.00e-06 *    1.00e-06 *    6.00e-06 *    4.00e-06 *
  ---------------------------------------------------------------------------------------------
      3   -1394.36518418   -1.87e-03 o    8.32e-03      5.35e-03      2.05e-02      1.11e-02    ~
  ---------------------------------------------------------------------------------------------

	Writing optimization data to binary file.
	Structure for next step:
	Cartesian Geometry (in Angstrom)
	   CR    -0.0010245110   0.0681956360  -0.0150098469
	    O     1.0223589792   0.8227504391  -0.9297774510
	    O    -1.0513615014   1.1073722937   0.5049619380
	    F    -0.7954415597  -1.1585893477  -0.9198615651
	    F     0.8224983579  -0.6421271487   1.3161956640
			--------------------------
			 OPTKING Finished Execution 
			--------------------------

    Structure for next step:
    Molecular point group: c1
    Full point group: C1

    Geometry (in Angstrom), charge = 0, multiplicity = 1:

    CR          -0.000999327750     0.066526391889    -0.014642480779
    O            1.022384166551     0.821081197986    -0.929410088488
    O           -1.051336322222     1.105703053707     0.505329306182
    F           -0.795416379501    -1.160258596574    -0.919494202572
    F            0.822523544394    -0.643796395571     1.316563035374

gradient() will perform analytic gradient computation.

*** tstart() called on thinkpad
*** at Sat Jul 10 15:12:36 2021

   => Loading Basis Set <=

    Name: DEF2-TZVP
    Role: ORBITAL
    Keyword: BASIS
    atoms 1   entry CR         line   872 file /usr/share/psi4/basis/def2-tzvp.gbs 
    atoms 2-3 entry O          line   189 file /usr/share/psi4/basis/def2-tzvp.gbs 
    atoms 4-5 entry F          line   222 file /usr/share/psi4/basis/def2-tzvp.gbs 


         ---------------------------------------------------------
                                   SCF
               by Justin Turney, Rob Parrish, Andy Simmonett
                          and Daniel G. A. Smith
                              RKS Reference
                        4 Threads,   7629 MiB Core
         ---------------------------------------------------------

  ==> Geometry <==

    Molecular point group: c1
    Full point group: C1

    Geometry (in Angstrom), charge = 0, multiplicity = 1:

       Center              X                  Y                   Z               Mass       
    ------------   -----------------  -----------------  -----------------  -----------------
         CR          -0.000999327750     0.066526391889    -0.014642480779    51.940506230000
         O            1.022384166551     0.821081197986    -0.929410088488    15.994914619570
         O           -1.051336322222     1.105703053707     0.505329306182    15.994914619570
         F           -0.795416379501    -1.160258596574    -0.919494202572    18.998403162730
         F            0.822523544394    -0.643796395571     1.316563035374    18.998403162730

  Running in c1 symmetry.

  Rotational constants: A =      0.14621  B =      0.13337  C =      0.12155 [cm^-1]
  Rotational constants: A =   4383.18255  B =   3998.32447  C =   3643.86423 [MHz]
  Nuclear repulsion =  348.009326946637430

  Charge       = 0
  Multiplicity = 1
  Electrons    = 58
  Nalpha       = 29
  Nbeta        = 29

  ==> Algorithm <==

  SCF Algorithm Type is DF.
  DIIS enabled.
  MOM disabled.
  Fractional occupation disabled.
  Guess Type is READ.
  Energy threshold   = 1.00e-08
  Density threshold  = 1.00e-08
  Integral threshold = 0.00e+00

  ==> Primary Basis <==

  Basis Set: DEF2-TZVP
    Blend: DEF2-TZVP
    Number of shells: 59
    Number of basis function: 169
    Number of Cartesian functions: 196
    Spherical Harmonics?: true
    Max angular momentum: 3

  ==> DFT Potential <==

   => Composite Functional: MY PBE <= 

    Perdew, Burke & Ernzerhof
    J. P. Perdew, K. Burke, and M. Ernzerhof, Phys. Rev. Lett. 77, 3865 (1996)
    J. P. Perdew, K. Burke, and M. Ernzerhof, Phys. Rev. Lett. 78, 1396 (1997)

    Deriv               =              1
    GGA                 =           TRUE
    Meta                =          FALSE

    Exchange Hybrid     =          FALSE
    MP2 Hybrid          =          FALSE

   => Exchange Functionals <=

    1.0000     XC_gga_x_pbe

   => Correlation Functionals <=

    1.0000     XC_gga_c_pbe

   => Molecular Quadrature <=

    Radial Scheme          =       TREUTLER
    Pruning Scheme         =           FLAT
    Nuclear Scheme         =       TREUTLER

    BS radius alpha        =              1
    Pruning alpha          =              1
    Radial Points          =             75
    Spherical Points       =            302
    Total Points           =         113250
    Total Blocks           =            927
    Max Points             =            255
    Max Functions          =            162

   => Loading Basis Set <=

    Name: (DEF2-TZVP AUX)
    Role: JKFIT
    Keyword: DF_BASIS_SCF
    atoms 1   entry CR         line  1731 file /usr/share/psi4/basis/def2-tzvp-jkfit.gbs 
    atoms 2-3 entry O          line   323 file /usr/share/psi4/basis/def2-tzvp-jkfit.gbs 
    atoms 4-5 entry F          line   383 file /usr/share/psi4/basis/def2-tzvp-jkfit.gbs 

   => Loading Basis Set <=

    Name: DEF2-TZVP
    Role: ORBITAL
    Keyword: BASIS
    atoms 1   entry CR         line   872 file /usr/share/psi4/basis/def2-tzvp.gbs 
    atoms 2-3 entry O          line   189 file /usr/share/psi4/basis/def2-tzvp.gbs 
    atoms 4-5 entry F          line   222 file /usr/share/psi4/basis/def2-tzvp.gbs 

  Reading orbitals from file 180, no projection.

  ==> Pre-Iterations <==

   -------------------------------------------------------
    Irrep   Nso     Nmo     Nalpha   Nbeta   Ndocc  Nsocc
   -------------------------------------------------------
     A        169     169       0       0       0       0
   -------------------------------------------------------
    Total     169     169      29      29      29       0
   -------------------------------------------------------

  ==> Integral Setup <==

  DFHelper Memory: AOs need 0.129 GiB; user supplied 5.218 GiB. Using in-core AOs.

  ==> MemDFJK: Density-Fitted J/K Matrices <==

    J tasked:                   Yes
    K tasked:                    No
    wK tasked:                   No
    OpenMP threads:               4
    Memory [MiB]:              5343
    Algorithm:                 Core
    Schwarz Cutoff:           1E-12
    Mask sparsity (%):       3.4453
    Fitting Condition:        1E-10

   => Auxiliary Basis Set <=

  Basis Set: (DEF2-TZVP AUX)
    Blend: DEF2-TZVP-JKFIT
    Number of shells: 158
    Number of basis function: 572
    Number of Cartesian functions: 749
    Spherical Harmonics?: true
    Max angular momentum: 6

  Cached 100.0% of DFT collocation blocks in 0.370 [GiB].

  Minimum eigenvalue in the overlap matrix is 1.9659605361E-03.
  Using Symmetric Orthogonalization.

  SCF Guess: Orbitals guess was supplied from a previous computation.

  ==> Iterations <==

                           Total Energy        Delta E     RMS |[F,P]|

   @DF-RKS iter   0: -1394.35621848024402   -1.39436e+03   3.41109e-04 
   @DF-RKS iter   1: -1394.36521448801159   -8.99601e-03   1.97240e-04 DIIS
   @DF-RKS iter   2: -1394.33939188807562    2.58226e-02   1.85097e-03 DIIS
   @DF-RKS iter   3: -1394.36551585252846   -2.61240e-02   2.60426e-05 DIIS
   @DF-RKS iter   4: -1394.36552193029638   -6.07777e-06   7.06194e-06 DIIS
   @DF-RKS iter   5: -1394.36552220966269   -2.79366e-07   3.39283e-06 DIIS
   @DF-RKS iter   6: -1394.36552224496882   -3.53061e-08   2.38264e-06 DIIS
   @DF-RKS iter   7: -1394.36552228863502   -4.36662e-08   8.10067e-07 DIIS
   @DF-RKS iter   8: -1394.36552229085737   -2.22235e-09   5.98770e-07 DIIS
   @DF-RKS iter   9: -1394.36552229396898   -3.11161e-09   1.14668e-08 DIIS
   @DF-RKS iter  10: -1394.36552229397012   -1.13687e-12   7.83004e-09 DIIS
  Energy and wave function converged.


  ==> Post-Iterations <==

    Orbital Energies [Eh]
    ---------------------

    Doubly Occupied:                                                      

       1A   -214.659858     2A    -24.476412     3A    -24.301016  
       4A    -24.301012     5A    -20.842886     6A    -20.842811  
       7A    -20.838925     8A    -18.846074     9A    -18.846073  
      10A     -2.911483    11A     -1.906175    12A     -1.905073  
      13A     -1.901077    14A     -1.101933    15A     -1.097470  
      16A     -0.905349    17A     -0.895377    18A     -0.473437  
      19A     -0.466943    20A     -0.450354    21A     -0.449244  
      22A     -0.448510    23A     -0.417428    24A     -0.406392  
      25A     -0.393271    26A     -0.377781    27A     -0.363894  
      28A     -0.363077    29A     -0.323337  

    Virtual:                                                              

      30A     -0.219667    31A     -0.205048    32A     -0.178299  
      33A     -0.146374    34A     -0.121186    35A     -0.018406  
      36A      0.097656    37A      0.097853    38A      0.099959  
      39A      0.104212    40A      0.104296    41A      0.156924  
      42A      0.162812    43A      0.168072    44A      0.175845  
      45A      0.399054    46A      0.406783    47A      0.408164  
      48A      0.456677    49A      0.465467    50A      0.498451  
      51A      0.499988    52A      0.506348    53A      0.508210  
      54A      0.521226    55A      0.535171    56A      0.549282  
      57A      0.579545    58A      0.621154    59A      0.657961  
      60A      0.674213    61A      0.691296    62A      0.787020  
      63A      0.847127    64A      0.985671    65A      1.002440  
      66A      1.132034    67A      1.169906    68A      1.209262  
      69A      1.238964    70A      1.314266    71A      1.339117  
      72A      1.450195    73A      1.464398    74A      1.469091  
      75A      1.469161    76A      1.524669    77A      1.623891  
      78A      1.684223    79A      1.735514    80A      1.794012  
      81A      1.802623    82A      1.900817    83A      1.907584  
      84A      1.951694    85A      1.961277    86A      2.051927  
      87A      2.053469    88A      2.075693    89A      2.236851  
      90A      2.265743    91A      2.277874    92A      2.299006  
      93A      2.406017    94A      2.438481    95A      2.465194  
      96A      2.538548    97A      2.564095    98A      2.596316  
      99A      2.720523   100A      2.732480   101A      2.808301  
     102A      2.856891   103A      2.916603   104A      2.923582  
     105A      2.961854   106A      3.010796   107A      3.026805  
     108A      3.133576   109A      3.147442   110A      3.153616  
     111A      3.169541   112A      3.639110   113A      3.650211  
     114A      3.887390   115A      3.893511   116A      4.094870  
     117A      4.140756   118A      4.916055   119A      4.923153  
     120A      4.933084   121A      4.933116   122A      4.935655  
     123A      4.939096   124A      4.957464   125A      4.973599  
     126A      5.186391   127A      5.194646   128A      5.222159  
     129A      5.237967   130A      5.745641   131A      5.781270  
     132A      6.016697   133A      6.043693   134A      6.095300  
     135A      6.119072   136A      6.233380   137A      6.294915  
     138A      6.322728   139A      6.426630   140A      6.669007  
     141A      6.669384   142A      6.671853   143A      6.677760  
     144A      6.683904   145A      6.683987   146A      6.684008  
     147A      6.684760   148A      6.685614   149A      6.695365  
     150A      6.720792   151A      6.721479   152A      6.802134  
     153A      6.841010   154A      6.880766   155A      6.955477  
     156A      8.045627   157A      8.066447   158A      8.102057  
     159A      8.115330   160A      8.123802   161A      8.183184  
     162A      8.273708   163A      8.300103   164A      8.563049  
     165A      8.618561   166A     43.094291   167A     43.095713  
     168A     56.414873   169A     56.480187  

    Final Occupation by Irrep:
              A 
    DOCC [    29 ]

  @DF-RKS Final Energy: -1394.36552229397012

   => Energetics <=

    Nuclear Repulsion Energy =            348.0093269466374295
    One-Electron Energy =               -2612.8843286192827691
    Two-Electron Energy =                 956.4833520076871309
    DFT Exchange-Correlation Energy =     -85.9738726290120638
    Empirical Dispersion Energy =           0.0000000000000000
    VV10 Nonlocal Energy =                  0.0000000000000000
    Total Energy =                      -1394.3655222939701162

Computation Completed


Properties will be evaluated at   0.000000,   0.000000,   0.000000 [a0]

Properties computed using the SCF density matrix

  Nuclear Dipole Moment: [e a0]
     X:    -0.0220      Y:     1.4634      Z:    -0.3221

  Electronic Dipole Moment: [e a0]
     X:     0.0226      Y:    -1.5015      Z:     0.3305

  Dipole Moment: [e a0]
     X:     0.0006      Y:    -0.0380      Z:     0.0084     Total:     0.0389

  Dipole Moment: [D]
     X:     0.0015      Y:    -0.0967      Z:     0.0213     Total:     0.0990


*** tstop() called on thinkpad at Sat Jul 10 15:12:41 2021
Module time:
	user time   =      12.76 seconds =       0.21 minutes
	system time =       0.12 seconds =       0.00 minutes
	total time  =          5 seconds =       0.08 minutes
Total time:
	user time   =      89.53 seconds =       1.49 minutes
	system time =       0.96 seconds =       0.02 minutes
	total time  =         33 seconds =       0.55 minutes

*** tstart() called on thinkpad
*** at Sat Jul 10 15:12:41 2021


         ------------------------------------------------------------
                                   SCF GRAD                          
                          Rob Parrish, Justin Turney,                
                       Andy Simmonett, and Alex Sokolov              
         ------------------------------------------------------------

  ==> Geometry <==

    Molecular point group: c1
    Full point group: C1

    Geometry (in Angstrom), charge = 0, multiplicity = 1:

[...]

    Name: (DEF2-TZVP AUX)
    Role: JKFIT
    Keyword: DF_BASIS_SCF
    atoms 1   entry CR         line  1731 file /usr/share/psi4/basis/def2-tzvp-jkfit.gbs 
    atoms 2-3 entry O          line   323 file /usr/share/psi4/basis/def2-tzvp-jkfit.gbs 
    atoms 4-5 entry F          line   383 file /usr/share/psi4/basis/def2-tzvp-jkfit.gbs 

   => Loading Basis Set <=

    Name: DEF2-TZVP
    Role: ORBITAL
    Keyword: BASIS
    atoms 1   entry CR         line   872 file /usr/share/psi4/basis/def2-tzvp.gbs 
    atoms 2-3 entry O          line   189 file /usr/share/psi4/basis/def2-tzvp.gbs 
    atoms 4-5 entry F          line   222 file /usr/share/psi4/basis/def2-tzvp.gbs 

  Reading orbitals from file 180, no projection.

  ==> Pre-Iterations <==

   -------------------------------------------------------
    Irrep   Nso     Nmo     Nalpha   Nbeta   Ndocc  Nsocc
   -------------------------------------------------------
     A        169     169       0       0       0       0
   -------------------------------------------------------
    Total     169     169      29      29      29       0
   -------------------------------------------------------

  ==> Integral Setup <==

  DFHelper Memory: AOs need 0.129 GiB; user supplied 5.218 GiB. Using in-core AOs.

  ==> MemDFJK: Density-Fitted J/K Matrices <==

    J tasked:                   Yes
    K tasked:                    No
    wK tasked:                   No
    OpenMP threads:               4
    Memory [MiB]:              5343
    Algorithm:                 Core
    Schwarz Cutoff:           1E-12
    Mask sparsity (%):       3.4593
    Fitting Condition:        1E-10

   => Auxiliary Basis Set <=

  Basis Set: (DEF2-TZVP AUX)
    Blend: DEF2-TZVP-JKFIT
    Number of shells: 158
    Number of basis function: 572
    Number of Cartesian functions: 749
    Spherical Harmonics?: true
    Max angular momentum: 6

  Cached 100.0% of DFT collocation blocks in 0.370 [GiB].

  Minimum eigenvalue in the overlap matrix is 1.9765326312E-03.
  Using Symmetric Orthogonalization.

  SCF Guess: Orbitals guess was supplied from a previous computation.

  ==> Iterations <==

                           Total Energy        Delta E     RMS |[F,P]|

   @DF-RKS iter   0: -1394.36552217838016   -1.39437e+03   1.04348e-06 
   @DF-RKS iter   1: -1394.36554654815973   -2.43698e-05   3.55996e-07 DIIS
   @DF-RKS iter   2: -1394.36554652841687    1.97429e-08   1.41587e-06 DIIS
   @DF-RKS iter   3: -1394.36554654956080   -2.11439e-08   9.81904e-08 DIIS
   @DF-RKS iter   4: -1394.36554654924817    3.12639e-10   2.26613e-07 DIIS
   @DF-RKS iter   5: -1394.36554654963766   -3.89491e-10   2.05859e-08 DIIS
   @DF-RKS iter   6: -1394.36554654962833    9.32232e-12   3.34840e-08 DIIS
   @DF-RKS iter   7: -1394.36554654964129   -1.29603e-11   3.54049e-09 DIIS
  Energy and wave function converged.


  ==> Post-Iterations <==

    Orbital Energies [Eh]
    ---------------------

    Doubly Occupied:                                                      

       1A   -214.660536     2A    -24.476946     3A    -24.300980  
       4A    -24.300976     5A    -20.843462     6A    -20.843348  
       7A    -20.839467     8A    -18.846438     9A    -18.846437  
      10A     -2.911730    11A     -1.906215    12A     -1.905198  
      13A     -1.901335    14A     -1.101702    15A     -1.097214  
      16A     -0.905462    17A     -0.895426    18A     -0.472916  
      19A     -0.466881    20A     -0.449587    21A     -0.448802  
      22A     -0.448336    23A     -0.417364    24A     -0.406421  
      25A     -0.393253    26A     -0.377855    27A     -0.363766  
      28A     -0.362914    29A     -0.323603  

    Virtual:                                                              

      30A     -0.220342    31A     -0.205606    32A     -0.179596  
      33A     -0.146789    34A     -0.122530    35A     -0.018574  
      36A      0.097649    37A      0.097675    38A      0.099920  
      39A      0.104149    40A      0.104264    41A      0.156191  
      42A      0.162853    43A      0.168308    44A      0.175663  
      45A      0.399035    46A      0.406818    47A      0.407585  
      48A      0.456289    49A      0.465525    50A      0.498453  
      51A      0.500073    52A      0.505267    53A      0.508141  
      54A      0.520647    55A      0.535406    56A      0.549738  
      57A      0.579325    58A      0.619819    59A      0.657927  
      60A      0.674762    61A      0.691059    62A      0.788142  
      63A      0.847011    64A      0.985994    65A      1.001645  
      66A      1.130998    67A      1.169537    68A      1.207710  
      69A      1.237235    70A      1.313518    71A      1.339221  
      72A      1.450226    73A      1.464795    74A      1.466297  
      75A      1.468961    76A      1.523318    77A      1.623367  
      78A      1.683269    79A      1.737299    80A      1.792725  
      81A      1.802607    82A      1.900955    83A      1.907693  
      84A      1.951277    85A      1.960476    86A      2.049707  
      87A      2.052690    88A      2.074221    89A      2.236234  
      90A      2.264190    91A      2.277416    92A      2.296390  
      93A      2.405862    94A      2.437378    95A      2.461513  
      96A      2.538364    97A      2.564463    98A      2.594265  
      99A      2.719522   100A      2.731206   101A      2.808671  
     102A      2.854044   103A      2.913257   104A      2.923982  
     105A      2.959713   106A      3.009393   107A      3.025752  
     108A      3.132992   109A      3.146523   110A      3.153248  
     111A      3.168808   112A      3.635731   113A      3.647380  
     114A      3.883480   115A      3.890241   116A      4.091534  
     117A      4.134155   118A      4.916110   119A      4.923087  
     120A      4.933080   121A      4.933118   122A      4.935612  
     123A      4.939074   124A      4.957336   125A      4.972906  
     126A      5.185186   127A      5.191629   128A      5.217652  
     129A      5.235200   130A      5.738786   131A      5.776431  
     132A      6.016014   133A      6.043067   134A      6.095484  
     135A      6.118299   136A      6.230775   137A      6.293616  
     138A      6.322028   139A      6.425743   140A      6.669302  
     141A      6.669545   142A      6.672187   143A      6.677931  
     144A      6.684122   145A      6.684243   146A      6.684262  
     147A      6.684995   148A      6.685724   149A      6.695007  
     150A      6.720310   151A      6.720476   152A      6.798605  
     153A      6.838737   154A      6.879617   155A      6.951133  
     156A      8.045610   157A      8.066299   158A      8.101754  
     159A      8.115329   160A      8.123521   161A      8.181532  
     162A      8.274149   163A      8.296348   164A      8.560980  
     165A      8.614144   166A     43.090208   167A     43.094443  
     168A     56.412020   169A     56.478691  

    Final Occupation by Irrep:
              A 
    DOCC [    29 ]

  @DF-RKS Final Energy: -1394.36554654964129

   => Energetics <=

    Nuclear Repulsion Energy =            347.5679800475090815
    One-Electron Energy =               -2612.0006817116886850
    Two-Electron Energy =                 956.0367312831730260
    DFT Exchange-Correlation Energy =     -85.9695761686348732
    Empirical Dispersion Energy =           0.0000000000000000
    VV10 Nonlocal Energy =                  0.0000000000000000
    Total Energy =                      -1394.3655465496412944

Computation Completed


Properties will be evaluated at   0.000000,   0.000000,   0.000000 [a0]

Properties computed using the SCF density matrix

  Nuclear Dipole Moment: [e a0]
     X:    -0.0219      Y:     1.4604      Z:    -0.3214

  Electronic Dipole Moment: [e a0]
     X:     0.0225      Y:    -1.5006      Z:     0.3303

  Dipole Moment: [e a0]
     X:     0.0006      Y:    -0.0401      Z:     0.0088     Total:     0.0411

  Dipole Moment: [D]
     X:     0.0015      Y:    -0.1020      Z:     0.0224     Total:     0.1044


*** tstop() called on thinkpad at Sat Jul 10 15:13:32 2021
Module time:
	user time   =      10.27 seconds =       0.17 minutes
	system time =       0.09 seconds =       0.00 minutes
	total time  =          4 seconds =       0.07 minutes
Total time:
	user time   =     225.14 seconds =       3.75 minutes
	system time =       2.29 seconds =       0.04 minutes
	total time  =         84 seconds =       1.40 minutes

*** tstart() called on thinkpad
*** at Sat Jul 10 15:13:32 2021


         ------------------------------------------------------------
                                   SCF GRAD                          
                          Rob Parrish, Justin Turney,                
                       Andy Simmonett, and Alex Sokolov              
         ------------------------------------------------------------

  ==> Geometry <==

    Molecular point group: c1
    Full point group: C1

    Geometry (in Angstrom), charge = 0, multiplicity = 1:

       Center              X                  Y                   Z               Mass       
    ------------   -----------------  -----------------  -----------------  -----------------
         CR          -0.000984696251     0.065532384117    -0.014423532890    51.940506230000
         O            1.025260093975     0.818102783418    -0.930802886104    15.994914619570
         O           -1.054134391326     1.103504159382     0.507861821067    15.994914619570
         F           -0.798969719022    -1.157837883267    -0.925111067017    18.998403162730
         F            0.825971332693    -0.639140730962     1.320621771784    18.998403162730

  Nuclear repulsion =  347.567980047509081

  ==> Basis Set <==

  Basis Set: DEF2-TZVP
    Blend: DEF2-TZVP
    Number of shells: 59
    Number of basis function: 169
    Number of Cartesian functions: 196
    Spherical Harmonics?: true
    Max angular momentum: 3

  ==> DFJKGrad: Density-Fitted SCF Gradients <==

    Gradient:                    1
    J tasked:                  Yes
    K tasked:                   No
    wK tasked:                  No
    OpenMP threads:              4
    Integrals threads:           4
    Memory [MiB]:             5722
    Schwarz Cutoff:          0E+00
    Fitting Condition:       1E-10

   => Auxiliary Basis Set <=

  Basis Set: (DEF2-TZVP AUX)
    Blend: DEF2-TZVP-JKFIT
    Number of shells: 158
    Number of basis function: 572
    Number of Cartesian functions: 749
    Spherical Harmonics?: true
    Max angular momentum: 6

  ==> DFT Potential <==

   => Composite Functional: MY PBE <= 

    Perdew, Burke & Ernzerhof
    J. P. Perdew, K. Burke, and M. Ernzerhof, Phys. Rev. Lett. 77, 3865 (1996)
    J. P. Perdew, K. Burke, and M. Ernzerhof, Phys. Rev. Lett. 78, 1396 (1997)

    Deriv               =              1
    GGA                 =           TRUE
    Meta                =          FALSE

    Exchange Hybrid     =          FALSE
    MP2 Hybrid          =          FALSE

   => Exchange Functionals <=

    1.0000     XC_gga_x_pbe

   => Correlation Functionals <=

    1.0000     XC_gga_c_pbe

   => Molecular Quadrature <=

    Radial Scheme          =       TREUTLER
    Pruning Scheme         =           FLAT
    Nuclear Scheme         =       TREUTLER

    BS radius alpha        =              1
    Pruning alpha          =              1
    Radial Points          =             75
    Spherical Points       =            302
    Total Points           =         113250
    Total Blocks           =            927
    Max Points             =            256
    Max Functions          =            162


  -Total Gradient:
     Atom            X                  Y                   Z
    ------   -----------------  -----------------  -----------------
       1        0.000000237639    -0.000013907448     0.000003120132
       2       -0.000000196262    -0.000013586288     0.000003283932
       3        0.000000621323    -0.000013710013     0.000002721479
       4        0.000000392366    -0.000013037872     0.000003156693
       5       -0.000000043198    -0.000013122736     0.000002543799


*** tstop() called on thinkpad at Sat Jul 10 15:13:35 2021
Module time:
	user time   =       8.21 seconds =       0.14 minutes
	system time =       0.08 seconds =       0.00 minutes
	total time  =          3 seconds =       0.05 minutes
Total time:
	user time   =     233.36 seconds =       3.89 minutes
	system time =       2.37 seconds =       0.04 minutes
	total time  =         87 seconds =       1.45 minutes

			-----------------------------------------
			 OPTKING 2.0: for geometry optimizations 
			  - R.A. King,  Bethel University        
			-----------------------------------------

	Previous internal coordinate definitions found.
	---Fragment 1 Geometry and Gradient---
	 CR         -0.0018608062        0.1238382583       -0.0272565269
	 O           1.9374607850        1.5459902031       -1.7589625315
	 O          -1.9920252990        2.0853206395        0.9597197514
	 F          -1.5098339515       -2.1879964971       -1.7482065523
	 F           1.5608596063       -1.2078009371        2.4956134640
	             0.0000002376       -0.0000139074        0.0000031201
	            -0.0000001963       -0.0000135863        0.0000032839
	             0.0000006213       -0.0000137100        0.0000027215
	             0.0000003924       -0.0000130379        0.0000031567
	            -0.0000000432       -0.0000131227        0.0000025438

	---Fragment 1 Intrafragment Coordinates---
	 - Coordinate -           - BOHR/RAD -       - ANG/DEG -
	 R(1,2)           =         2.963493	       1.568213
	 R(1,3)           =         2.963493	       1.568213
	 R(1,4)           =         3.252727	       1.721269
	 R(1,5)           =         3.252727	       1.721269
	 B(2,1,3)         =         1.892786	     108.448647
	 B(2,1,4)         =         1.912714	     109.590428
	 B(2,1,5)         =         1.912714	     109.590424
	 B(3,1,4)         =         1.912714	     109.590426
	 B(3,1,5)         =         1.912714	     109.590422
	 B(4,1,5)         =         1.919972	     110.006291

	Current energy   :     -1394.3655465496

	Energy change for the previous step:
		Projected    :        -0.0000000050
		Actual       :        -0.0000000123

	Performing BFGS update.
	Previous computed or guess Hessian on step 1.
	Denominators (dg)(dq) or (dq)(dq) are very small.
	 Skipping Hessian update for step 10.
	Steps to be used in Hessian update: 9 8
	Taking RFO optimization step.
	Going to follow RFO solution 1.
	Using RFO vector 1.
	Norm of target step-size    0.00000
	Projected energy change by RFO approximation:        -0.0000000000

	Back-transformation to cartesian coordinates...
	Successfully converged to displaced geometry.

	--- Internal Coordinate Step in ANG or DEG, aJ/ANG or AJ/DEG ---
	 ---------------------------------------------------------------------------
	   Coordinate                Previous        Force       Change         New 
	   ----------                --------       ------       ------       ------
	    1 R(1,2)          =      1.568213     0.000004     0.000000     1.568213
	    2 R(1,3)          =      1.568213     0.000004     0.000000     1.568213
	    3 R(1,4)          =      1.721269     0.000004     0.000001     1.721270
	    4 R(1,5)          =      1.721269     0.000005     0.000001     1.721270
	    5 B(2,1,3)        =    108.448647     0.000000     0.000073   108.448720
	    6 B(2,1,4)        =    109.590428    -0.000000     0.000018   109.590445
	    7 B(2,1,5)        =    109.590424    -0.000000     0.000021   109.590444
	    8 B(3,1,4)        =    109.590426    -0.000000     0.000019   109.590445
	    9 B(3,1,5)        =    109.590422     0.000000     0.000022   109.590444
	   10 B(4,1,5)        =    110.006291    -0.000000    -0.000150   110.006141
	 ---------------------------------------------------------------------------
	Successfully symmetrized geometry.

  ==> Convergence Check <==

  Measures of convergence in internal coordinates in au.
  Criteria marked as inactive (o), active & met (*), and active & unmet ( ).
  ---------------------------------------------------------------------------------------------
   Step     Total Energy     Delta E     MAX Force     RMS Force      MAX Disp      RMS Disp   
  ---------------------------------------------------------------------------------------------
    Convergence Criteria             o    2.00e-06 *    1.00e-06 *    6.00e-06 *    4.00e-06 *
  ---------------------------------------------------------------------------------------------
     11   -1394.36554655   -1.23e-08 o    5.88e-07 *    3.81e-07 *    2.62e-06 *    1.22e-06 *  ~
  ---------------------------------------------------------------------------------------------


  **** Optimization is complete! (in 11 steps) ****

  ==> Optimization Summary <==

  Measures of convergence in internal coordinates in au.
  --------------------------------------------------------------------------------------------------------------- ~
   Step         Total Energy             Delta E       MAX Force       RMS Force        MAX Disp        RMS Disp  ~
  --------------------------------------------------------------------------------------------------------------- ~
      1   -1394.360852409521  -1394.360852409521      0.03484612      0.02023963      0.06085744      0.02466927  ~
      2   -1394.363319007002     -0.002466597480      0.02479481      0.01392932      0.04518598      0.02253411  ~
      3   -1394.365184181107     -0.001865174106      0.00831648      0.00535398      0.02047410      0.01106017  ~
      4   -1394.365522293970     -0.000338112863      0.00205899      0.00125806      0.00447662      0.00295306  ~
      5   -1394.365542749205     -0.000020455235      0.00077212      0.00041025      0.00305569      0.00117015  ~
      6   -1394.365545379856     -0.000002630652      0.00045736      0.00023850      0.00241428      0.00086910  ~
      7   -1394.365546240108     -0.000000860251      0.00027256      0.00013385      0.00024240      0.00012664  ~
      8   -1394.365546365250     -0.000000125142      0.00020125      0.00009781      0.00010528      0.00006659  ~
      9   -1394.365546438375     -0.000000073125      0.00014678      0.00007108      0.00027543      0.00016689  ~
     10   -1394.365546537338     -0.000000098963      0.00002598      0.00001232      0.00008204      0.00003598  ~
     11   -1394.365546549641     -0.000000012304      0.00000059      0.00000038      0.00000262      0.00000122  ~
  --------------------------------------------------------------------------------------------------------------- ~

	Writing optimization data to binary file.
	Final energy is  -1394.3655465496413
	Final (previous) structure:
	Cartesian Geometry (in Angstrom)
	   CR    -0.0009846962   0.0655323839  -0.0144235328
	    O     1.0252600899   0.8181027802  -0.9308028824
	    O    -1.0541343872   1.1035041550   0.5078618191
	    F    -0.7989697159  -1.1578378787  -0.9251110634
	    F     0.8259713294  -0.6391407285   1.3206217666
	Saving final (previous) structure.
			--------------------------
			 OPTKING Finished Execution 
			--------------------------

    Final optimized geometry and variables:
    Molecular point group: c1
    Full point group: C1

    Geometry (in Angstrom), charge = 0, multiplicity = 1:

    CR          -0.000984696251     0.065532384117    -0.014423532890
    O            1.025260093975     0.818102783418    -0.930802886104
    O           -1.054134391326     1.103504159382     0.507861821067
    F           -0.798969719022    -1.157837883267    -0.925111067017
    F            0.825971332693    -0.639140730962     1.320621771784

	Removing binary optimization data file.
	Cleaning optimization helper files.

    Psi4 stopped on: Saturday, 10 July 2021 03:13PM
    Psi4 wall time for execution: 0:01:26.73

*** Psi4 exiting successfully. Buy a developer a beer!
