
    -----------------------------------------------------------------------
          Psi4: An Open-Source Ab Initio Electronic Structure Package
                               Psi4 1.3.2 release

                         Git: Rev {} zzzzzzz 


    R. M. Parrish, L. A. Burns, D. G. A. Smith, A. C. Simmonett,
    A. E. DePrince III, E. G. Hohenstein, U. Bozkaya, A. Yu. Sokolov,
    R. Di Remigio, R. M. Richard, J. F. Gonthier, A. M. James,
    H. R. McAlexander, A. Kumar, M. Saitow, X. Wang, B. P. Pritchard,
    P. Verma, H. F. Schaefer III, K. Patkowski, R. A. King, E. F. Valeev,
    F. A. Evangelista, J. M. Turney, T. D. Crawford, and C. D. Sherrill,
    J. Chem. Theory Comput. 13(7) pp 3185--3197 (2017).
    (doi: 10.1021/acs.jctc.7b00174)


                         Additional Contributions by
    P. Kraus, H. Kruse, M. H. Lechner, M. C. Schieber, R. A. Shaw,
    A. Alenaizan, R. Galvelis, Z. L. Glick, S. Lehtola, and J. P. Misiewicz

    -----------------------------------------------------------------------


    Psi4 started on: Saturday, 10 July 2021 02:56PM

    Process ID: 1669873
    Host:       thinkpad
    PSIDATADIR: /usr/share/psi4
    Memory:     500.0 MiB
    Threads:    4
    
  ==> Input File <==

--------------------------------------------------------------------------
memory 8 gb

molecule {
symmetry c1
Cr        0.48028725377749    0.32716919378518    0.12128381663197
O         1.51332165941332    1.03448648135578   -0.78955553051410
O        -0.57831537187616    1.32157128739802    0.65757817076212
F        -0.29602430869141   -0.85637252313759   -0.76598418135575
F         1.28459076737678   -0.35182443940140    1.41848772447575
}

set basis def2-SV(P)
set geom_maxiter 250

# Use a (75,302) quadrature grid
set dft_radial_points 75
set dft_spherical_points 302

# Very tight geometry optimization
set g_convergence gau_verytight
# Increase allowed number of geometry optimization steps
set geom_maxiter 250

# Use the Hueckel type guess
set guess huckel

my_dft = {
    "name": "my lda",
    "x_functionals": {"lda_x": {}},
    "c_functionals": {"lda_c_pw": {}}
}
optimize('scf', dft_functional=my_dft)
--------------------------------------------------------------------------

  Memory set to   7.451 GiB by Python driver.
gradient() will perform analytic gradient computation.

*** tstart() called on thinkpad
*** at Sat Jul 10 14:56:04 2021

   => Loading Basis Set <=

    Name: DEF2-SV(P)
    Role: ORBITAL
    Keyword: BASIS
    atoms 1   entry CR         line   606 file /usr/share/psi4/basis/def2-sv_p_.gbs 
    atoms 2-3 entry O          line   128 file /usr/share/psi4/basis/def2-sv_p_.gbs 
    atoms 4-5 entry F          line   148 file /usr/share/psi4/basis/def2-sv_p_.gbs 


         ---------------------------------------------------------
                                   SCF
               by Justin Turney, Rob Parrish, Andy Simmonett
                          and Daniel G. A. Smith
                              RKS Reference
                        4 Threads,   7629 MiB Core
         ---------------------------------------------------------

  ==> Geometry <==

    Molecular point group: c1
    Full point group: C1

    Geometry (in Angstrom), charge = 0, multiplicity = 1:

       Center              X                  Y                   Z               Mass       
    ------------   -----------------  -----------------  -----------------  -----------------
         CR          -0.001007494106     0.066977222278    -0.014740872913    51.940506230000
         O            1.032026911530     0.774294509849    -0.925580220059    15.994914619570
         O           -1.059610119760     1.061379315891     0.521553481217    15.994914619570
         F           -0.777319056575    -1.116564494645    -0.902008870901    18.998403162730
         F            0.803296019493    -0.612016410908     1.282463034931    18.998403162730

  Running in c1 symmetry.

  Rotational constants: A =      0.15233  B =      0.13609  C =      0.12992 [cm^-1]
  Rotational constants: A =   4566.71939  B =   4079.72696  C =   3895.02954 [MHz]
  Nuclear repulsion =  355.181605515257786

  Charge       = 0
  Multiplicity = 1
  Electrons    = 58
  Nalpha       = 29
  Nbeta        = 29

  ==> Algorithm <==

  SCF Algorithm Type is DF.
  DIIS enabled.
  MOM disabled.
  Fractional occupation disabled.
  Guess Type is HUCKEL.
  Energy threshold   = 1.00e-08
  Density threshold  = 1.00e-08
  Integral threshold = 0.00e+00

  ==> Primary Basis <==

  Basis Set: DEF2-SV(P)
    Blend: DEF2-SV(P)
    Number of shells: 34
    Number of basis function: 80
    Number of Cartesian functions: 86
    Spherical Harmonics?: true
    Max angular momentum: 2

  ==> DFT Potential <==

   => Composite Functional: MY LDA <= 

    Slater exchange
    Perdew & Wang
    P. A. M. Dirac, Math. Proc. Cambridge Philos. Soc. 26, 376 (1930)
    F. Bloch, Z. Phys. 57, 545 (1929)
    J. P. Perdew and Y. Wang, Phys. Rev. B 45, 13244 (1992)

    Deriv               =              1
    GGA                 =          FALSE
    Meta                =          FALSE

    Exchange Hybrid     =          FALSE
    MP2 Hybrid          =          FALSE

   => Exchange Functionals <=

    1.0000         XC_lda_x

   => Correlation Functionals <=

    1.0000      XC_lda_c_pw

   => Molecular Quadrature <=

    Radial Scheme          =       TREUTLER
    Pruning Scheme         =           FLAT
    Nuclear Scheme         =       TREUTLER

    BS radius alpha        =              1
    Pruning alpha          =              1
    Radial Points          =             75
    Spherical Points       =            302
    Total Points           =         113250
    Total Blocks           =            920
    Max Points             =            256
    Max Functions          =             77

   => Loading Basis Set <=

    Name: (DEF2-SV(P) AUX)
    Role: JKFIT
    Keyword: DF_BASIS_SCF
    atoms 1   entry CR         line  1731 file /usr/share/psi4/basis/def2-sv_p_-jkfit.gbs 
    atoms 2-3 entry O          line   323 file /usr/share/psi4/basis/def2-sv_p_-jkfit.gbs 
    atoms 4-5 entry F          line   383 file /usr/share/psi4/basis/def2-sv_p_-jkfit.gbs 

  ==> Pre-Iterations <==

   -------------------------------------------------------
    Irrep   Nso     Nmo     Nalpha   Nbeta   Ndocc  Nsocc
   -------------------------------------------------------
     A         80      80       0       0       0       0
   -------------------------------------------------------
    Total      80      80      29      29      29       0
   -------------------------------------------------------

  ==> Integral Setup <==

  DFHelper Memory: AOs need 0.031 GiB; user supplied 5.540 GiB. Using in-core AOs.

  ==> MemDFJK: Density-Fitted J/K Matrices <==

    J tasked:                   Yes
    K tasked:                    No
    wK tasked:                   No
    OpenMP threads:               4
    Memory [MiB]:              5673
    Algorithm:                 Core
    Schwarz Cutoff:           1E-12
    Mask sparsity (%):       1.0938
    Fitting Condition:        1E-10

   => Auxiliary Basis Set <=

  Basis Set: (DEF2-SV(P) AUX)
    Blend: DEF2-SV_P_-JKFIT
    Number of shells: 158
    Number of basis function: 572
    Number of Cartesian functions: 749
    Spherical Harmonics?: true
    Max angular momentum: 6

  Cached 100.0% of DFT collocation blocks in 0.048 [GiB].

  Minimum eigenvalue in the overlap matrix is 1.8951953410E-02.
  Using Symmetric Orthogonalization.

  SCF Guess: Huckel guess via on-the-fly atomic UHF (doi:10.1021/acs.jctc.8b01089).

  ==> Iterations <==

                           Total Energy        Delta E     RMS |[F,P]|

   @DF-RKS iter   1: -1388.81624473416241   -1.38882e+03   2.57520e-02 DIIS
   @DF-RKS iter   2: -1373.49724117798019    1.53190e+01   5.99995e-02 DIIS
   @DF-RKS iter   3: -1386.91748109026071   -1.34202e+01   3.02082e-02 DIIS
   @DF-RKS iter   4: -1389.62493605279974   -2.70745e+00   7.95454e-03 DIIS
   @DF-RKS iter   5: -1388.47022001904588    1.15472e+00   2.39273e-02 DIIS
   @DF-RKS iter   6: -1389.69562913250525   -1.22541e+00   6.45617e-03 DIIS
   @DF-RKS iter   7: -1389.54978909946203    1.45840e-01   9.96632e-03 DIIS
   @DF-RKS iter   8: -1389.57465342508067   -2.48643e-02   9.19264e-03 DIIS
   @DF-RKS iter   9: -1389.74957092967770   -1.74918e-01   3.53279e-03 DIIS
   @DF-RKS iter  10: -1389.76761317624710   -1.80422e-02   2.16370e-03 DIIS
   @DF-RKS iter  11: -1389.77455895626053   -6.94578e-03   1.23653e-03 DIIS
   @DF-RKS iter  12: -1389.77757197993583   -3.01302e-03   2.75456e-04 DIIS
   @DF-RKS iter  13: -1389.77774628078168   -1.74301e-04   6.08170e-05 DIIS
   @DF-RKS iter  14: -1389.77775418465171   -7.90387e-06   1.91193e-05 DIIS
   @DF-RKS iter  15: -1389.77775512281960   -9.38168e-07   5.86674e-06 DIIS
   @DF-RKS iter  16: -1389.77775518880799   -6.59884e-08   2.00032e-06 DIIS
   @DF-RKS iter  17: -1389.77775519656188   -7.75390e-09   4.62236e-07 DIIS
   @DF-RKS iter  18: -1389.77775519698116   -4.19277e-10   5.66832e-08 DIIS
   @DF-RKS iter  19: -1389.77775519698707   -5.91172e-12   1.10909e-08 DIIS
   @DF-RKS iter  20: -1389.77775519698662    4.54747e-13   2.55860e-09 DIIS
  Energy and wave function converged.


  ==> Post-Iterations <==

    Orbital Energies [Eh]
    ---------------------

    Doubly Occupied:                                                      

       1A   -214.154136     2A    -24.445126     3A    -24.147034  
       4A    -24.147033     5A    -20.867382     6A    -20.866593  
       7A    -20.862303     8A    -18.699210     9A    -18.699197  
      10A     -2.902357    11A     -1.910245    12A     -1.909484  
      13A     -1.906050    14A     -1.077093    15A     -1.071472  
      16A     -0.882636    17A     -0.869834    18A     -0.487355  
      19A     -0.481162    20A     -0.466501    21A     -0.464889  
      22A     -0.461482    23A     -0.422300    24A     -0.414808  
      25A     -0.396445    26A     -0.378601    27A     -0.365274  
      28A     -0.365187    29A     -0.324587  

    Virtual:                                                              

      30A     -0.219311    31A     -0.201506    32A     -0.172801  
      33A     -0.134777    34A     -0.119401    35A     -0.007901  
      36A      0.141698    37A      0.183481    38A      0.183972  
      39A      0.188262    40A      0.522243    41A      0.523104  
      42A      0.536743    43A      0.580524    44A      0.582361  
      45A      0.857806    46A      0.864620    47A      0.900323  
      48A      0.924424    49A      0.929863    50A      0.952526  
      51A      1.053359    52A      1.077118    53A      1.130083  
      54A      1.146258    55A      1.165574    56A      1.176606  
      57A      1.279225    58A      1.357915    59A      1.591169  
      60A      1.603359    61A      2.434612    62A      2.441873  
      63A      2.466371    64A      2.480480    65A      2.484348  
      66A      2.517590    67A      2.541185    68A      2.569605  
      69A      2.572676    70A      2.676241    71A      2.902035  
      72A      2.904701    73A      2.915777    74A      2.918968  
      75A      2.923566    76A      2.958185    77A      2.978833  
      78A      3.011957    79A      3.137566    80A      3.154534  

    Final Occupation by Irrep:
              A 
    DOCC [    29 ]

  @DF-RKS Final Energy: -1389.77775519698662

   => Energetics <=

    Nuclear Repulsion Energy =            355.1816055152577860
    One-Electron Energy =               -2625.4476203131744114
    Two-Electron Energy =                 962.3644495893720432
    DFT Exchange-Correlation Energy =     -81.8761899884418511
    Empirical Dispersion Energy =           0.0000000000000000
    VV10 Nonlocal Energy =                  0.0000000000000000
    Total Energy =                      -1389.7777551969866181

Computation Completed


Properties will be evaluated at   0.000000,   0.000000,   0.000000 [a0]

Properties computed using the SCF density matrix

  Nuclear Dipole Moment: [e a0]
     X:    -0.0209      Y:     1.3901      Z:    -0.3060

  Electronic Dipole Moment: [e a0]
     X:     0.0229      Y:    -1.5258      Z:     0.3358

  Dipole Moment: [e a0]
     X:     0.0020      Y:    -0.1357      Z:     0.0299     Total:     0.1390

  Dipole Moment: [D]
     X:     0.0052      Y:    -0.3450      Z:     0.0759     Total:     0.3533


*** tstop() called on thinkpad at Sat Jul 10 14:56:09 2021
Module time:
	user time   =       9.56 seconds =       0.16 minutes
	system time =       0.11 seconds =       0.00 minutes
	total time  =          5 seconds =       0.08 minutes
Total time:
	user time   =       9.56 seconds =       0.16 minutes
	system time =       0.11 seconds =       0.00 minutes
	total time  =          5 seconds =       0.08 minutes

*** tstart() called on thinkpad
*** at Sat Jul 10 14:56:09 2021


         ------------------------------------------------------------
                                   SCF GRAD                          
                          Rob Parrish, Justin Turney,                
                       Andy Simmonett, and Alex Sokolov              
         ------------------------------------------------------------

  ==> Geometry <==

    Molecular point group: c1
    Full point group: C1

    Geometry (in Angstrom), charge = 0, multiplicity = 1:

       Center              X                  Y                   Z               Mass       
    ------------   -----------------  -----------------  -----------------  -----------------
         CR          -0.001007494106     0.066977222278    -0.014740872913    51.940506230000
         O            1.032026911530     0.774294509849    -0.925580220059    15.994914619570
         O           -1.059610119760     1.061379315891     0.521553481217    15.994914619570
         F           -0.777319056575    -1.116564494645    -0.902008870901    18.998403162730
         F            0.803296019493    -0.612016410908     1.282463034931    18.998403162730

  Nuclear repulsion =  355.181605515257786

  ==> Basis Set <==

  Basis Set: DEF2-SV(P)
    Blend: DEF2-SV(P)
    Number of shells: 34
    Number of basis function: 80
    Number of Cartesian functions: 86
    Spherical Harmonics?: true
    Max angular momentum: 2

  ==> DFJKGrad: Density-Fitted SCF Gradients <==

    Gradient:                    1
    J tasked:                  Yes
    K tasked:                   No
    wK tasked:                  No
    OpenMP threads:              4
    Integrals threads:           4
    Memory [MiB]:             5722
    Schwarz Cutoff:          0E+00
    Fitting Condition:       1E-10

   => Auxiliary Basis Set <=

  Basis Set: (DEF2-SV(P) AUX)
    Blend: DEF2-SV_P_-JKFIT
    Number of shells: 158
    Number of basis function: 572
    Number of Cartesian functions: 749
    Spherical Harmonics?: true
    Max angular momentum: 6

  ==> DFT Potential <==

   => Composite Functional: MY LDA <= 

    Slater exchange
    Perdew & Wang
    P. A. M. Dirac, Math. Proc. Cambridge Philos. Soc. 26, 376 (1930)
    F. Bloch, Z. Phys. 57, 545 (1929)
    J. P. Perdew and Y. Wang, Phys. Rev. B 45, 13244 (1992)

    Deriv               =              1
    GGA                 =          FALSE
    Meta                =          FALSE

    Exchange Hybrid     =          FALSE
    MP2 Hybrid          =          FALSE

   => Exchange Functionals <=

    1.0000         XC_lda_x

   => Correlation Functionals <=

    1.0000      XC_lda_c_pw

   => Molecular Quadrature <=

    Radial Scheme          =       TREUTLER
    Pruning Scheme         =           FLAT
    Nuclear Scheme         =       TREUTLER

    BS radius alpha        =              1
    Pruning alpha          =              1
    Radial Points          =             75
    Spherical Points       =            302
    Total Points           =         113250
    Total Blocks           =            920
    Max Points             =            256
    Max Functions          =             77


  -Total Gradient:
     Atom            X                  Y                   Z
    ------   -----------------  -----------------  -----------------
       1       -0.000018835426     0.001229614988    -0.000270362912
       2        0.002467726456    -0.006306767845    -0.000328812848
       3       -0.002287914609    -0.005653575798     0.002961286388
       4        0.004194486446     0.006684674125     0.004736087121
       5       -0.004354051259     0.003955980000    -0.007078414290


*** tstop() called on thinkpad at Sat Jul 10 14:56:10 2021
Module time:
	user time   =       2.89 seconds =       0.05 minutes
	system time =       0.02 seconds =       0.00 minutes
	total time  =          1 seconds =       0.02 minutes
Total time:
	user time   =      12.45 seconds =       0.21 minutes
	system time =       0.13 seconds =       0.00 minutes
	total time  =          6 seconds =       0.10 minutes

			-----------------------------------------
			 OPTKING 2.0: for geometry optimizations 
			  - R.A. King,  Bethel University        
			-----------------------------------------

	Internal coordinates to be generated automatically.
	Detected frag 1 with atoms:  1 2 3 4 5
	---Fragment 1 Bond Connectivity---
	 1 : 2 3 4 5
	 2 : 1
	 3 : 1
	 4 : 1
	 5 : 1

	---Fragment 1 Geometry and Gradient---
	 CR         -0.0019038879        0.1265686067       -0.0278562127
	 O           1.9502482169        1.4632045641       -1.7490931231
	 O          -2.0023729261        2.0057162223        0.9855932393
	 F          -1.4689201290       -2.1100010963       -1.7045497287
	 F           1.5180094745       -1.1565434009        2.4235039020
	            -0.0000188354        0.0012296150       -0.0002703629
	             0.0024677265       -0.0063067678       -0.0003288128
	            -0.0022879146       -0.0056535758        0.0029612864
	             0.0041944864        0.0066846741        0.0047360871
	            -0.0043540513        0.0039559800       -0.0070784143

	Previous optimization step data not found.  Starting new optimization.

	---Fragment 1 Intrafragment Coordinates---
	 - Coordinate -           - BOHR/RAD -       - ANG/DEG -
	 R(1,2)           =         2.925773	       1.548253
	 R(1,3)           =         2.925774	       1.548253
	 R(1,4)           =         3.156847	       1.670531
	 R(1,5)           =         3.156846	       1.670531
	 B(2,1,3)         =         1.946113	     111.504060
	 B(2,1,4)         =         1.897868	     108.739823
	 B(2,1,5)         =         1.897867	     108.739770
	 B(3,1,4)         =         1.897872	     108.740061
	 B(3,1,5)         =         1.897872	     108.740055
	 B(4,1,5)         =         1.926457	     110.377858

	Current energy   :     -1389.7777551970

	Generating empirical Hessian (Schlegel '84) for each fragment.
	Taking RFO optimization step.
	Going to follow RFO solution 1.
	Using RFO vector 1.
	Norm of target step-size    0.07116
	Projected energy change by RFO approximation:        -0.0019569519

	Back-transformation to cartesian coordinates...
	Successfully converged to displaced geometry.

	--- Internal Coordinate Step in ANG or DEG, aJ/ANG or AJ/DEG ---
	 ---------------------------------------------------------------------------
	   Coordinate                Previous        Force       Change         New 
	   ----------                --------       ------       ------       ------
	    1 R(1,2)          =      1.548253     0.008493     0.000198     1.548451
	    2 R(1,3)          =      1.548253     0.008491     0.000198     1.548451
	    3 R(1,4)          =      1.670531     0.075888     0.003625     1.674157
	    4 R(1,5)          =      1.670531     0.075890     0.003625     1.674156
	    5 B(2,1,3)        =    111.504060    -0.001230    -3.672401   107.831659
	    6 B(2,1,4)        =    108.739823     0.000259     0.756675   109.496498
	    7 B(2,1,5)        =    108.739770     0.000259     0.756724   109.496493
	    8 B(3,1,4)        =    108.740061     0.000259     0.756485   109.496546
	    9 B(3,1,5)        =    108.740055     0.000259     0.756498   109.496553
	   10 B(4,1,5)        =    110.377858     0.000192     0.586347   110.964205
	 ---------------------------------------------------------------------------
	Successfully symmetrized geometry.

  ==> Convergence Check <==

  Measures of convergence in internal coordinates in au.
  Criteria marked as inactive (o), active & met (*), and active & unmet ( ).
  --------------------------------------------------------------------------------------------- ~
   Step     Total Energy     Delta E     MAX Force     RMS Force      MAX Disp      RMS Disp    ~
  --------------------------------------------------------------------------------------------- ~
    Convergence Criteria             o    2.00e-06 *    1.00e-06 *    6.00e-06 *    4.00e-06 *  ~
  --------------------------------------------------------------------------------------------- ~
      1   -1389.77775520   -1.39e+03 o    1.62e-02      6.97e-03      6.41e-02      2.24e-02    ~
  ---------------------------------------------------------------------------------------------

	Writing optimization data to binary file.
	Structure for next step:
	Cartesian Geometry (in Angstrom)
	   CR    -0.0007383388   0.0491444999  -0.0108165642
	    O     1.0084775633   0.7993721485  -0.9143332653
	    O    -1.0367179751   1.0800803536   0.5006700342
	    F    -0.7816473828  -1.1309809226  -0.9054031157
	    F     0.8080123941  -0.6235459377   1.2915694635
			--------------------------
			 OPTKING Finished Execution 
			--------------------------

    Structure for next step:
    Molecular point group: c1
    Full point group: C1

    Geometry (in Angstrom), charge = 0, multiplicity = 1:

    CR          -0.000827248027     0.055040940712    -0.012114208734
    O            1.008388658098     0.805268592177    -0.915630913338
    O           -1.036806888424     1.085976798458     0.499372391680
    F           -0.781736295112    -1.125084486427    -0.906700763703
    F            0.807923488043    -0.617649499594     1.290271824145

gradient() will perform analytic gradient computation.

*** tstart() called on thinkpad
*** at Sat Jul 10 14:56:10 2021

   => Loading Basis Set <=

    Name: DEF2-SV(P)
    Role: ORBITAL
    Keyword: BASIS
    atoms 1   entry CR         line   606 file /usr/share/psi4/basis/def2-sv_p_.gbs 
    atoms 2-3 entry O          line   128 file /usr/share/psi4/basis/def2-sv_p_.gbs 
    atoms 4-5 entry F          line   148 file /usr/share/psi4/basis/def2-sv_p_.gbs 


         ---------------------------------------------------------
                                   SCF
               by Justin Turney, Rob Parrish, Andy Simmonett
                          and Daniel G. A. Smith
                              RKS Reference
                        4 Threads,   7629 MiB Core
         ---------------------------------------------------------

  ==> Geometry <==

    Molecular point group: c1
    Full point group: C1

    Geometry (in Angstrom), charge = 0, multiplicity = 1:

       Center              X                  Y                   Z               Mass       
    ------------   -----------------  -----------------  -----------------  -----------------
         CR          -0.000827248027     0.055040940712    -0.012114208734    51.940506230000
         O            1.008388658098     0.805268592177    -0.915630913338    15.994914619570
         O           -1.036806888424     1.085976798458     0.499372391680    15.994914619570
         F           -0.781736295112    -1.125084486427    -0.906700763703    18.998403162730
         F            0.807923488043    -0.617649499594     1.290271824145    18.998403162730

  Running in c1 symmetry.

  Rotational constants: A =      0.15254  B =      0.13773  C =      0.12702 [cm^-1]
  Rotational constants: A =   4573.07595  B =   4129.07478  C =   3807.93890 [MHz]
  Nuclear repulsion =  354.737697187908680

  Charge       = 0
  Multiplicity = 1
  Electrons    = 58
  Nalpha       = 29
  Nbeta        = 29

  ==> Algorithm <==

  SCF Algorithm Type is DF.
  DIIS enabled.
  MOM disabled.
  Fractional occupation disabled.
  Guess Type is READ.
  Energy threshold   = 1.00e-08
  Density threshold  = 1.00e-08
  Integral threshold = 0.00e+00

  ==> Primary Basis <==

  Basis Set: DEF2-SV(P)
    Blend: DEF2-SV(P)
    Number of shells: 34
    Number of basis function: 80
    Number of Cartesian functions: 86
    Spherical Harmonics?: true
    Max angular momentum: 2

  ==> DFT Potential <==

   => Composite Functional: MY LDA <= 

    Slater exchange
    Perdew & Wang
    P. A. M. Dirac, Math. Proc. Cambridge Philos. Soc. 26, 376 (1930)
    F. Bloch, Z. Phys. 57, 545 (1929)
    J. P. Perdew and Y. Wang, Phys. Rev. B 45, 13244 (1992)

    Deriv               =              1
    GGA                 =          FALSE
    Meta                =          FALSE

    Exchange Hybrid     =          FALSE
    MP2 Hybrid          =          FALSE

   => Exchange Functionals <=

    1.0000         XC_lda_x

   => Correlation Functionals <=

    1.0000      XC_lda_c_pw

   => Molecular Quadrature <=

    Radial Scheme          =       TREUTLER
    Pruning Scheme         =           FLAT
    Nuclear Scheme         =       TREUTLER

    BS radius alpha        =              1
    Pruning alpha          =              1
    Radial Points          =             75
    Spherical Points       =            302
    Total Points           =         113250
    Total Blocks           =            920
    Max Points             =            255
    Max Functions          =             77

   => Loading Basis Set <=

    Name: (DEF2-SV(P) AUX)
    Role: JKFIT
    Keyword: DF_BASIS_SCF
    atoms 1   entry CR         line  1731 file /usr/share/psi4/basis/def2-sv_p_-jkfit.gbs 
    atoms 2-3 entry O          line   323 file /usr/share/psi4/basis/def2-sv_p_-jkfit.gbs 
    atoms 4-5 entry F          line   383 file /usr/share/psi4/basis/def2-sv_p_-jkfit.gbs 

   => Loading Basis Set <=

    Name: DEF2-SV(P)
    Role: ORBITAL
    Keyword: BASIS
    atoms 1   entry CR         line   606 file /usr/share/psi4/basis/def2-sv_p_.gbs 
    atoms 2-3 entry O          line   128 file /usr/share/psi4/basis/def2-sv_p_.gbs 
    atoms 4-5 entry F          line   148 file /usr/share/psi4/basis/def2-sv_p_.gbs 

  Reading orbitals from file 180, no projection.

  ==> Pre-Iterations <==

   -------------------------------------------------------
    Irrep   Nso     Nmo     Nalpha   Nbeta   Ndocc  Nsocc
   -------------------------------------------------------
     A         80      80       0       0       0       0
   -------------------------------------------------------
    Total      80      80      29      29      29       0
   -------------------------------------------------------

  ==> Integral Setup <==

  DFHelper Memory: AOs need 0.031 GiB; user supplied 5.540 GiB. Using in-core AOs.

  ==> MemDFJK: Density-Fitted J/K Matrices <==

    J tasked:                   Yes
    K tasked:                    No
    wK tasked:                   No
    OpenMP threads:               4
    Memory [MiB]:              5673
    Algorithm:                 Core
    Schwarz Cutoff:           1E-12
    Mask sparsity (%):       1.1250
    Fitting Condition:        1E-10

   => Auxiliary Basis Set <=

  Basis Set: (DEF2-SV(P) AUX)
    Blend: DEF2-SV_P_-JKFIT
    Number of shells: 158
    Number of basis function: 572
    Number of Cartesian functions: 749
    Spherical Harmonics?: true
    Max angular momentum: 6

  Cached 100.0% of DFT collocation blocks in 0.048 [GiB].

  Minimum eigenvalue in the overlap matrix is 1.8364651081E-02.
  Using Symmetric Orthogonalization.

  SCF Guess: Orbitals guess was supplied from a previous computation.

  ==> Iterations <==

                           Total Energy        Delta E     RMS |[F,P]|

   @DF-RKS iter   0: -1389.77677178995759   -1.38978e+03   1.14863e-03 
   @DF-RKS iter   1: -1389.77811695621995   -1.34517e-03   3.21405e-04 DIIS
   @DF-RKS iter   2: -1389.76716528825204    1.09517e-02   2.26414e-03 DIIS
   @DF-RKS iter   3: -1389.77792243693125   -1.07571e-02   4.56368e-04 DIIS
   @DF-RKS iter   4: -1389.77836523017641   -4.42793e-04   7.76573e-05 DIIS
   @DF-RKS iter   5: -1389.77837825505708   -1.30249e-05   7.54014e-06 DIIS
   @DF-RKS iter   6: -1389.77837833724675   -8.21897e-08   3.61851e-06 DIIS
   @DF-RKS iter   7: -1389.77837835348896   -1.62422e-08   2.12442e-06 DIIS
   @DF-RKS iter   8: -1389.77837836261688   -9.12792e-09   9.50819e-07 DIIS
   @DF-RKS iter   9: -1389.77837836445815   -1.84127e-09   2.43676e-07 DIIS
   @DF-RKS iter  10: -1389.77837836457684   -1.18689e-10   8.16133e-09 DIIS
  Energy and wave function converged.


  ==> Post-Iterations <==

    Orbital Energies [Eh]
    ---------------------

    Doubly Occupied:                                                      

       1A   -214.154858     2A    -24.445510     3A    -24.145947  
       4A    -24.145945     5A    -20.867597     6A    -20.866993  
       7A    -20.862976     8A    -18.699872     9A    -18.699864  
      10A     -2.902385    11A     -1.910518    12A     -1.909578  
      13A     -1.905438    14A     -1.075902    15A     -1.070196  
      16A     -0.882040    17A     -0.871379    18A     -0.486790  
      19A     -0.479893    20A     -0.465053    21A     -0.464350  
      22A     -0.460393    23A     -0.421535    24A     -0.414082  
      25A     -0.397057    26A     -0.379945    27A     -0.366573  
      28A     -0.364776    29A     -0.323249  

    Virtual:                                                              

      30A     -0.216979    31A     -0.203339    32A     -0.171802  
      33A     -0.140175    34A     -0.116946    35A     -0.008909  
      36A      0.138493    37A      0.184429    38A      0.184739  
      39A      0.188561    40A      0.520621    41A      0.525342  
      42A      0.542050    43A      0.575132    44A      0.585552  
      45A      0.849993    46A      0.866405    47A      0.901096  
      48A      0.927880    49A      0.929029    50A      0.959698  
      51A      1.054043    52A      1.078175    53A      1.134505  
      54A      1.140799    55A      1.163984    56A      1.166017  
      57A      1.283623    58A      1.352011    59A      1.592677  
      60A      1.601861    61A      2.435801    62A      2.441021  
      63A      2.462764    64A      2.475343    65A      2.483815  
      66A      2.519819    67A      2.544758    68A      2.566504  
      69A      2.575874    70A      2.674802    71A      2.902697  
      72A      2.907210    73A      2.917061    74A      2.919516  
      75A      2.924436    76A      2.964499    77A      2.976731  
      78A      3.009107    79A      3.144983    80A      3.145676  

    Final Occupation by Irrep:
              A 
    DOCC [    29 ]

  @DF-RKS Final Energy: -1389.77837836457684

   => Energetics <=

    Nuclear Repulsion Energy =            354.7376971879086796
    One-Electron Energy =               -2624.5730025429465968
    Two-Electron Energy =                 961.9304851592673913
    DFT Exchange-Correlation Energy =     -81.8735581688059852
    Empirical Dispersion Energy =           0.0000000000000000
    VV10 Nonlocal Energy =                  0.0000000000000000
    Total Energy =                      -1389.7783783645768381

Computation Completed


Properties will be evaluated at   0.000000,   0.000000,   0.000000 [a0]

Properties computed using the SCF density matrix

  Nuclear Dipole Moment: [e a0]
     X:    -0.0218      Y:     1.4482      Z:    -0.3187

  Electronic Dipole Moment: [e a0]
     X:     0.0240      Y:    -1.6000      Z:     0.3522

  Dipole Moment: [e a0]
     X:     0.0023      Y:    -0.1519      Z:     0.0334     Total:     0.1555

  Dipole Moment: [D]
     X:     0.0058      Y:    -0.3860      Z:     0.0850     Total:     0.3953


*** tstop() called on thinkpad at Sat Jul 10 14:56:13 2021
Module time:
	user time   =       5.19 seconds =       0.09 minutes
	system time =       0.05 seconds =       0.00 minutes
	total time  =          3 seconds =       0.05 minutes
Total time:
	user time   =      17.68 seconds =       0.29 minutes
	system time =       0.19 seconds =       0.00 minutes
	total time  =          9 seconds =       0.15 minutes

*** tstart() called on thinkpad
*** at Sat Jul 10 14:56:13 2021


         ------------------------------------------------------------
                                   SCF GRAD                          
                          Rob Parrish, Justin Turney,                
                       Andy Simmonett, and Alex Sokolov              
         ------------------------------------------------------------

  ==> Geometry <==

    Molecular point group: c1
    Full point group: C1

    Geometry (in Angstrom), charge = 0, multiplicity = 1:

       Center              X                  Y                   Z               Mass       
    ------------   -----------------  -----------------  -----------------  -----------------
         CR          -0.000827248027     0.055040940712    -0.012114208734    51.940506230000
         O            1.008388658098     0.805268592177    -0.915630913338    15.994914619570
         O           -1.036806888424     1.085976798458     0.499372391680    15.994914619570
         F           -0.781736295112    -1.125084486427    -0.906700763703    18.998403162730
         F            0.807923488043    -0.617649499594     1.290271824145    18.998403162730

  Nuclear repulsion =  354.737697187908680

  ==> Basis Set <==

  Basis Set: DEF2-SV(P)
    Blend: DEF2-SV(P)
    Number of shells: 34
    Number of basis function: 80
    Number of Cartesian functions: 86
    Spherical Harmonics?: true
    Max angular momentum: 2

  ==> DFJKGrad: Density-Fitted SCF Gradients <==

    Gradient:                    1
    J tasked:                  Yes
    K tasked:                   No
    wK tasked:                  No
    OpenMP threads:              4
    Integrals threads:           4
    Memory [MiB]:             5722
    Schwarz Cutoff:          0E+00
    Fitting Condition:       1E-10

   => Auxiliary Basis Set <=

  Basis Set: (DEF2-SV(P) AUX)
    Blend: DEF2-SV_P_-JKFIT
    Number of shells: 158
    Number of basis function: 572
    Number of Cartesian functions: 749
    Spherical Harmonics?: true
    Max angular momentum: 6

  ==> DFT Potential <==

   => Composite Functional: MY LDA <= 

    Slater exchange
    Perdew & Wang
    P. A. M. Dirac, Math. Proc. Cambridge Philos. Soc. 26, 376 (1930)
    F. Bloch, Z. Phys. 57, 545 (1929)
    J. P. Perdew and Y. Wang, Phys. Rev. B 45, 13244 (1992)

    Deriv               =              1
    GGA                 =          FALSE
    Meta                =          FALSE

    Exchange Hybrid     =          FALSE
    MP2 Hybrid          =          FALSE

   => Exchange Functionals <=

    1.0000         XC_lda_x

   => Correlation Functionals <=

    1.0000      XC_lda_c_pw

   => Molecular Quadrature <=

    Radial Scheme          =       TREUTLER
    Pruning Scheme         =           FLAT
    Nuclear Scheme         =       TREUTLER

    BS radius alpha        =              1
    Pruning alpha          =              1
    Radial Points          =             75
    Spherical Points       =            302
    Total Points           =         113250
    Total Blocks           =            920
    Max Points             =            255
    Max Functions          =             77


  -Total Gradient:
     Atom            X                  Y                   Z
    ------   -----------------  -----------------  -----------------
       1        0.000145221568    -0.009669449998     0.002128310156
       2       -0.000809305736     0.001012827986     0.000351656078
       3        0.000782150107     0.000794493730    -0.000749455186
       4        0.003155645764     0.004904781752     0.003587965427
       5       -0.003272140618     0.002852968117    -0.005295504681


*** tstop() called on thinkpad at Sat Jul 10 14:56:14 2021
Module time:
	user time   =       2.88 seconds =       0.05 minutes
	system time =       0.02 seconds =       0.00 minutes
	total time  =          1 seconds =       0.02 minutes
Total time:
	user time   =      20.56 seconds =       0.34 minutes
	system time =       0.21 seconds =       0.00 minutes
	total time  =         10 seconds =       0.17 minutes

			-----------------------------------------
			 OPTKING 2.0: for geometry optimizations 
			  - R.A. King,  Bethel University        
			-----------------------------------------

	Previous internal coordinate definitions found.
	---Fragment 1 Geometry and Gradient---
	 CR         -0.0015632722        0.1040123036       -0.0228925367
	 O           1.9055783918        1.5217370966       -1.7302916582
	 O          -1.9592810641        2.0521987277        0.9436770549
	 F          -1.4772675001       -2.1261015473       -1.7134161211
	 F           1.5267541227       -1.1671883958        2.4382603750
	             0.0001452216       -0.0096694500        0.0021283102
	            -0.0008093057        0.0010128280        0.0003516561
	             0.0007821501        0.0007944937       -0.0007494552
	             0.0031556458        0.0049047818        0.0035879654
	            -0.0032721406        0.0028529681       -0.0052955047

	---Fragment 1 Intrafragment Coordinates---
	 - Coordinate -           - BOHR/RAD -       - ANG/DEG -
	 R(1,2)           =         2.926148	       1.548451
	 R(1,3)           =         2.926149	       1.548451
	 R(1,4)           =         3.163697	       1.674157
	 R(1,5)           =         3.163697	       1.674156
	 B(2,1,3)         =         1.882017	     107.831659
	 B(2,1,4)         =         1.911074	     109.496498
	 B(2,1,5)         =         1.911074	     109.496493
	 B(3,1,4)         =         1.911075	     109.496546
	 B(3,1,5)         =         1.911075	     109.496553
	 B(4,1,5)         =         1.936691	     110.964205

	Current energy   :     -1389.7783783646

	Energy change for the previous step:
		Projected    :        -0.0019569519
		Actual       :        -0.0006231676

	Performing BFGS update.
	Previous computed or guess Hessian on step 1.
	Steps to be used in Hessian update: 1
	Taking RFO optimization step.
	Going to follow RFO solution 1.
	Using RFO vector 1.
	Norm of target step-size    0.01132
	Projected energy change by RFO approximation:        -0.0001105494

	Back-transformation to cartesian coordinates...
	Successfully converged to displaced geometry.

	--- Internal Coordinate Step in ANG or DEG, aJ/ANG or AJ/DEG ---
	 ---------------------------------------------------------------------------
	   Coordinate                Previous        Force       Change         New 
	   ----------                --------       ------       ------       ------
	    1 R(1,2)          =      1.548451     0.001890     0.000052     1.548503
	    2 R(1,3)          =      1.548451     0.001889     0.000052     1.548503
	    3 R(1,4)          =      1.674157     0.056507     0.002641     1.676798
	    4 R(1,5)          =      1.674156     0.056507     0.002641     1.676798
	    5 B(2,1,3)        =    107.831659     0.000256     0.458371   108.290030
	    6 B(2,1,4)        =    109.496498    -0.000043    -0.068169   109.428328
	    7 B(2,1,5)        =    109.496493    -0.000043    -0.068167   109.428327
	    8 B(3,1,4)        =    109.496546    -0.000043    -0.068223   109.428323
	    9 B(3,1,5)        =    109.496553    -0.000043    -0.068230   109.428323
	   10 B(4,1,5)        =    110.964205    -0.000075    -0.169198   110.795007
	 ---------------------------------------------------------------------------
	Successfully symmetrized geometry.

  ==> Convergence Check <==

  Measures of convergence in internal coordinates in au.
  Criteria marked as inactive (o), active & met (*), and active & unmet ( ).
  ---------------------------------------------------------------------------------------------
   Step     Total Energy     Delta E     MAX Force     RMS Force      MAX Disp      RMS Disp   
  ---------------------------------------------------------------------------------------------
    Convergence Criteria             o    2.00e-06 *    1.00e-06 *    6.00e-06 *    4.00e-06 *
  ---------------------------------------------------------------------------------------------
      2   -1389.77837836   -6.23e-04 o    6.86e-03      3.28e-03      8.00e-03      3.58e-03    ~
  ---------------------------------------------------------------------------------------------

	Writing optimization data to binary file.
	Structure for next step:
	Cartesian Geometry (in Angstrom)
	   CR    -0.0008769310   0.0583681565  -0.0128467623
	    O     1.0114190463   0.8033178923  -0.9173730904
	    O    -1.0397908084   1.0848509023   0.5017915701
	    F    -0.7821793624  -1.1253517622  -0.9072876040
	    F     0.8083697700  -0.6176328442   1.2909142168
			--------------------------
			 OPTKING Finished Execution 
			--------------------------

    Structure for next step:
    Molecular point group: c1
    Full point group: C1

    Geometry (in Angstrom), charge = 0, multiplicity = 1:

    CR          -0.000862363026     0.057393427112    -0.012632165210
    O            1.011433618235     0.802343165861    -0.917158496875
    O           -1.039776244539     1.083876176955     0.502006169282
    F           -0.782164797525    -1.126326496205    -0.907073010401
    F            0.808384341121    -0.618607576235     1.291128819055

gradient() will perform analytic gradient computation.

*** tstart() called on thinkpad
*** at Sat Jul 10 14:56:14 2021

   => Loading Basis Set <=

    Name: DEF2-SV(P)
    Role: ORBITAL
    Keyword: BASIS
    atoms 1   entry CR         line   606 file /usr/share/psi4/basis/def2-sv_p_.gbs 
    atoms 2-3 entry O          line   128 file /usr/share/psi4/basis/def2-sv_p_.gbs 
    atoms 4-5 entry F          line   148 file /usr/share/psi4/basis/def2-sv_p_.gbs 


         ---------------------------------------------------------
                                   SCF
               by Justin Turney, Rob Parrish, Andy Simmonett
                          and Daniel G. A. Smith
                              RKS Reference
                        4 Threads,   7629 MiB Core
         ---------------------------------------------------------

  ==> Geometry <==

    Molecular point group: c1
    Full point group: C1

    Geometry (in Angstrom), charge = 0, multiplicity = 1:

       Center              X                  Y                   Z               Mass       
    ------------   -----------------  -----------------  -----------------  -----------------
         CR          -0.000862363026     0.057393427112    -0.012632165210    51.940506230000
         O            1.011433618235     0.802343165861    -0.917158496875    15.994914619570
         O           -1.039776244539     1.083876176955     0.502006169282    15.994914619570
         F           -0.782164797525    -1.126326496205    -0.907073010401    18.998403162730
         F            0.808384341121    -0.618607576235     1.291128819055    18.998403162730

  Running in c1 symmetry.

  Rotational constants: A =      0.15223  B =      0.13731  C =      0.12701 [cm^-1]
  Rotational constants: A =   4563.71475  B =   4116.42934  C =   3807.57895 [MHz]
  Nuclear repulsion =  354.444932574836912

  Charge       = 0
  Multiplicity = 1
  Electrons    = 58
  Nalpha       = 29
  Nbeta        = 29

  ==> Algorithm <==

  SCF Algorithm Type is DF.
  DIIS enabled.
  MOM disabled.
  Fractional occupation disabled.
  Guess Type is READ.
  Energy threshold   = 1.00e-08
  Density threshold  = 1.00e-08
  Integral threshold = 0.00e+00

  ==> Primary Basis <==

  Basis Set: DEF2-SV(P)
    Blend: DEF2-SV(P)
    Number of shells: 34
    Number of basis function: 80
    Number of Cartesian functions: 86
    Spherical Harmonics?: true
    Max angular momentum: 2

  ==> DFT Potential <==

   => Composite Functional: MY LDA <= 

    Slater exchange
    Perdew & Wang
    P. A. M. Dirac, Math. Proc. Cambridge Philos. Soc. 26, 376 (1930)
    F. Bloch, Z. Phys. 57, 545 (1929)
    J. P. Perdew and Y. Wang, Phys. Rev. B 45, 13244 (1992)

    Deriv               =              1
    GGA                 =          FALSE
    Meta                =          FALSE

    Exchange Hybrid     =          FALSE
    MP2 Hybrid          =          FALSE

   => Exchange Functionals <=

    1.0000         XC_lda_x

   => Correlation Functionals <=

    1.0000      XC_lda_c_pw

   => Molecular Quadrature <=

    Radial Scheme          =       TREUTLER
    Pruning Scheme         =           FLAT
    Nuclear Scheme         =       TREUTLER

    BS radius alpha        =              1
    Pruning alpha          =              1
    Radial Points          =             75
    Spherical Points       =            302
    Total Points           =         113250
    Total Blocks           =            925
    Max Points             =            255
    Max Functions          =             77

   => Loading Basis Set <=

    Name: (DEF2-SV(P) AUX)
    Role: JKFIT
    Keyword: DF_BASIS_SCF
    atoms 1   entry CR         line  1731 file /usr/share/psi4/basis/def2-sv_p_-jkfit.gbs 
    atoms 2-3 entry O          line   323 file /usr/share/psi4/basis/def2-sv_p_-jkfit.gbs 
    atoms 4-5 entry F          line   383 file /usr/share/psi4/basis/def2-sv_p_-jkfit.gbs 

   => Loading Basis Set <=

    Name: DEF2-SV(P)
    Role: ORBITAL
    Keyword: BASIS
    atoms 1   entry CR         line   606 file /usr/share/psi4/basis/def2-sv_p_.gbs 
    atoms 2-3 entry O          line   128 file /usr/share/psi4/basis/def2-sv_p_.gbs 
    atoms 4-5 entry F          line   148 file /usr/share/psi4/basis/def2-sv_p_.gbs 

  Reading orbitals from file 180, no projection.

  ==> Pre-Iterations <==

   -------------------------------------------------------
    Irrep   Nso     Nmo     Nalpha   Nbeta   Ndocc  Nsocc
   -------------------------------------------------------
     A         80      80       0       0       0       0
   -------------------------------------------------------
    Total      80      80      29      29      29       0
   -------------------------------------------------------

  ==> Integral Setup <==

  DFHelper Memory: AOs need 0.031 GiB; user supplied 5.540 GiB. Using in-core AOs.

  ==> MemDFJK: Density-Fitted J/K Matrices <==

    J tasked:                   Yes
    K tasked:                    No
    wK tasked:                   No
    OpenMP threads:               4
    Memory [MiB]:              5673
    Algorithm:                 Core
    Schwarz Cutoff:           1E-12
    Mask sparsity (%):       1.1563
    Fitting Condition:        1E-10

   => Auxiliary Basis Set <=

  Basis Set: (DEF2-SV(P) AUX)
    Blend: DEF2-SV_P_-JKFIT
    Number of shells: 158
    Number of basis function: 572
    Number of Cartesian functions: 749
    Spherical Harmonics?: true
    Max angular momentum: 6

  Cached 100.0% of DFT collocation blocks in 0.048 [GiB].

  Minimum eigenvalue in the overlap matrix is 1.8447503286E-02.
  Using Symmetric Orthogonalization.

  SCF Guess: Orbitals guess was supplied from a previous computation.

  ==> Iterations <==

                           Total Energy        Delta E     RMS |[F,P]|

   @DF-RKS iter   0: -1389.77698963260468   -1.38978e+03   2.18448e-04 
   @DF-RKS iter   1: -1389.77845543724493   -1.46580e-03   1.96688e-05 DIIS
   @DF-RKS iter   2: -1389.77845026450041    5.17274e-06   4.94577e-05 DIIS
   @DF-RKS iter   3: -1389.77845504235393   -4.77785e-06   2.76540e-05 DIIS
   @DF-RKS iter   4: -1389.77845361948721    1.42287e-06   3.73322e-05 DIIS
   @DF-RKS iter   5: -1389.77845651084795   -2.89136e-06   2.87290e-06 DIIS
   @DF-RKS iter   6: -1389.77845652922406   -1.83761e-08   2.50827e-07 DIIS
   @DF-RKS iter   7: -1389.77845652895780    2.66255e-10   4.00458e-07 DIIS
   @DF-RKS iter   8: -1389.77845652937526   -4.17458e-10   3.29741e-08 DIIS
   @DF-RKS iter   9: -1389.77845652937594   -6.82121e-13   2.75322e-08 DIIS
   @DF-RKS iter  10: -1389.77845652937754   -1.59162e-12   2.36761e-09 DIIS
  Energy and wave function converged.


  ==> Post-Iterations <==

    Orbital Energies [Eh]
    ---------------------

    Doubly Occupied:                                                      

       1A   -214.155537     2A    -24.446058     3A    -24.145695  
       4A    -24.145694     5A    -20.868179     6A    -20.867562  
       7A    -20.863516     8A    -18.700298     9A    -18.700289  
      10A     -2.902632    11A     -1.910553    12A     -1.909985  
      13A     -1.905491    14A     -1.075320    15A     -1.069711  
      16A     -0.882499    17A     -0.871609    18A     -0.486181  
      19A     -0.479366    20A     -0.464613    21A     -0.464063  
      22A     -0.460321    23A     -0.421672    24A     -0.413678  
      25A     -0.396848    26A     -0.380091    27A     -0.366652  
      28A     -0.364996    29A     -0.323836  

    Virtual:                                                              

      30A     -0.217857    31A     -0.203579    32A     -0.172743  
      33A     -0.140217    34A     -0.117706    35A     -0.008849  
      36A      0.138697    37A      0.184153    38A      0.184694  
      39A      0.187751    40A      0.520761    41A      0.525122  
      42A      0.542251    43A      0.575068    44A      0.584806  
      45A      0.850930    46A      0.866012    47A      0.900516  
      48A      0.927848    49A      0.928632    50A      0.958566  
      51A      1.054060    52A      1.077915    53A      1.133072  
      54A      1.140717    55A      1.164651    56A      1.165895  
      57A      1.282796    58A      1.353033    59A      1.593080  
      60A      1.603439    61A      2.435158    62A      2.440693  
      63A      2.462710    64A      2.475536    65A      2.483628  
      66A      2.519176    67A      2.543845    68A      2.566966  
      69A      2.574756    70A      2.675108    71A      2.903041  
      72A      2.907670    73A      2.917662    74A      2.919732  
      75A      2.925075    76A      2.964072    77A      2.977223  
      78A      3.009557    79A      3.143988    80A      3.144965  

    Final Occupation by Irrep:
              A 
    DOCC [    29 ]

  @DF-RKS Final Energy: -1389.77845652937754

   => Energetics <=

    Nuclear Repulsion Energy =            354.4449325748369120
    One-Electron Energy =               -2623.9850776889079498
    Two-Electron Energy =                 961.6323651437036233
    DFT Exchange-Correlation Energy =     -81.8706765590103061
    Empirical Dispersion Energy =           0.0000000000000000
    VV10 Nonlocal Energy =                  0.0000000000000000
    Total Energy =                      -1389.7784565293775358

Computation Completed


Properties will be evaluated at   0.000000,   0.000000,   0.000000 [a0]

Properties computed using the SCF density matrix

  Nuclear Dipole Moment: [e a0]
     X:    -0.0217      Y:     1.4415      Z:    -0.3173

  Electronic Dipole Moment: [e a0]
     X:     0.0238      Y:    -1.5837      Z:     0.3486

  Dipole Moment: [e a0]
     X:     0.0021      Y:    -0.1422      Z:     0.0313     Total:     0.1456

  Dipole Moment: [D]
     X:     0.0054      Y:    -0.3615      Z:     0.0796     Total:     0.3702


*** tstop() called on thinkpad at Sat Jul 10 14:56:17 2021
Module time:
	user time   =       5.18 seconds =       0.09 minutes
	system time =       0.06 seconds =       0.00 minutes
	total time  =          3 seconds =       0.05 minutes
Total time:
	user time   =      25.78 seconds =       0.43 minutes
	system time =       0.27 seconds =       0.00 minutes
	total time  =         13 seconds =       0.22 minutes

*** tstart() called on thinkpad
*** at Sat Jul 10 14:56:17 2021


         ------------------------------------------------------------
                                   SCF GRAD                          
                          Rob Parrish, Justin Turney,                
                       Andy Simmonett, and Alex Sokolov              
         ------------------------------------------------------------

  ==> Geometry <==

    Molecular point group: c1
    Full point group: C1

    Geometry (in Angstrom), charge = 0, multiplicity = 1:

       Center              X                  Y                   Z               Mass       
    ------------   -----------------  -----------------  -----------------  -----------------
         CR          -0.000862363026     0.057393427112    -0.012632165210    51.940506230000
         O            1.011433618235     0.802343165861    -0.917158496875    15.994914619570
         O           -1.039776244539     1.083876176955     0.502006169282    15.994914619570
         F           -0.782164797525    -1.126326496205    -0.907073010401    18.998403162730
         F            0.808384341121    -0.618607576235     1.291128819055    18.998403162730

  Nuclear repulsion =  354.444932574836912

  ==> Basis Set <==

  Basis Set: DEF2-SV(P)
    Blend: DEF2-SV(P)
    Number of shells: 34
    Number of basis function: 80
    Number of Cartesian functions: 86
    Spherical Harmonics?: true
    Max angular momentum: 2

  ==> DFJKGrad: Density-Fitted SCF Gradients <==

    Gradient:                    1
    J tasked:                  Yes
    K tasked:                   No
    wK tasked:                  No
    OpenMP threads:              4
    Integrals threads:           4
    Memory [MiB]:             5722
    Schwarz Cutoff:          0E+00
    Fitting Condition:       1E-10

   => Auxiliary Basis Set <=

  Basis Set: (DEF2-SV(P) AUX)
    Blend: DEF2-SV_P_-JKFIT
    Number of shells: 158
    Number of basis function: 572
    Number of Cartesian functions: 749
    Spherical Harmonics?: true
    Max angular momentum: 6

  ==> DFT Potential <==

   => Composite Functional: MY LDA <= 

    Slater exchange
    Perdew & Wang
    P. A. M. Dirac, Math. Proc. Cambridge Philos. Soc. 26, 376 (1930)
    F. Bloch, Z. Phys. 57, 545 (1929)
    J. P. Perdew and Y. Wang, Phys. Rev. B 45, 13244 (1992)

    Deriv               =              1
    GGA                 =          FALSE
    Meta                =          FALSE

    Exchange Hybrid     =          FALSE
    MP2 Hybrid          =          FALSE

   => Exchange Functionals <=

    1.0000         XC_lda_x

   => Correlation Functionals <=

    1.0000      XC_lda_c_pw

   => Molecular Quadrature <=

    Radial Scheme          =       TREUTLER
    Pruning Scheme         =           FLAT
    Nuclear Scheme         =       TREUTLER

    BS radius alpha        =              1
    Pruning alpha          =              1
    Radial Points          =             75
    Spherical Points       =            302
    Total Points           =         113250
    Total Blocks           =            925
    Max Points             =            255
    Max Functions          =             77


  -Total Gradient:
     Atom            X                  Y                   Z
    ------   -----------------  -----------------  -----------------
       1        0.000090769956    -0.006031670934     0.001327543074
       2       -0.000136620205     0.000240309220     0.000043355638
       3        0.000129862477     0.000203801681    -0.000141032665
       4        0.002280740871     0.003483757921     0.002605406168
       5       -0.002363214287     0.002001414242    -0.003812736811


*** tstop() called on thinkpad at Sat Jul 10 14:56:18 2021
Module time:
	user time   =       2.92 seconds =       0.05 minutes
	system time =       0.02 seconds =       0.00 minutes
	total time  =          1 seconds =       0.02 minutes
Total time:
	user time   =      28.70 seconds =       0.48 minutes
	system time =       0.29 seconds =       0.00 minutes
	total time  =         14 seconds =       0.23 minutes

			-----------------------------------------
			 OPTKING 2.0: for geometry optimizations 
			  - R.A. King,  Bethel University        
			-----------------------------------------

	Previous internal coordinate definitions found.
	---Fragment 1 Geometry and Gradient---
	 CR         -0.0016296299        0.1084578586       -0.0238713326
	 O           1.9113325325        1.5162088421       -1.7331783727
	 O          -1.9648923339        2.0482291284        0.9486541732
	 F          -1.4780772523       -2.1284486057       -1.7141195655
	 F           1.5276250088       -1.1689988982        2.4398798607
	             0.0000907700       -0.0060316709        0.0013275431
	            -0.0001366202        0.0002403092        0.0000433556
	             0.0001298625        0.0002038017       -0.0001410327
	             0.0022807409        0.0034837579        0.0026054062
	            -0.0023632143        0.0020014142       -0.0038127368

	---Fragment 1 Intrafragment Coordinates---
	 - Coordinate -           - BOHR/RAD -       - ANG/DEG -
	 R(1,2)           =         2.926246	       1.548503
	 R(1,3)           =         2.926247	       1.548503
	 R(1,4)           =         3.168689	       1.676798
	 R(1,5)           =         3.168688	       1.676798
	 B(2,1,3)         =         1.890018	     108.290030
	 B(2,1,4)         =         1.909885	     109.428328
	 B(2,1,5)         =         1.909885	     109.428327
	 B(3,1,4)         =         1.909885	     109.428323
	 B(3,1,5)         =         1.909885	     109.428323
	 B(4,1,5)         =         1.933738	     110.795007

	Current energy   :     -1389.7784565294

	Energy change for the previous step:
		Projected    :        -0.0001105494
		Actual       :        -0.0000781648

	Performing BFGS update.
	Previous computed or guess Hessian on step 1.
	Steps to be used in Hessian update: 2 1
	Taking RFO optimization step.
	Going to follow RFO solution 1.
	Using RFO vector 1.
	Norm of target step-size    0.01697
	Projected energy change by RFO approximation:        -0.0001174477

	Back-transformation to cartesian coordinates...
	Successfully converged to displaced geometry.

	--- Internal Coordinate Step in ANG or DEG, aJ/ANG or AJ/DEG ---
	 ---------------------------------------------------------------------------
	   Coordinate                Previous        Force       Change         New 
	   ----------                --------       ------       ------       ------
	    1 R(1,2)          =      1.548503    -0.000109     0.000040     1.548543
	    2 R(1,3)          =      1.548503    -0.000110     0.000040     1.548543
	    3 R(1,4)          =      1.676798     0.040565     0.006260     1.683057
	    4 R(1,5)          =      1.676798     0.040566     0.006260     1.683057
	    5 B(2,1,3)        =    108.290030     0.000057     0.102999   108.393029
	    6 B(2,1,4)        =    109.428328    -0.000009     0.007122   109.435450
	    7 B(2,1,5)        =    109.428327    -0.000009     0.007137   109.435464
	    8 B(3,1,4)        =    109.428323    -0.000009     0.007089   109.435412
	    9 B(3,1,5)        =    109.428323    -0.000009     0.007093   109.435416
	   10 B(4,1,5)        =    110.795007    -0.000019    -0.126381   110.668626
	 ---------------------------------------------------------------------------
	Successfully symmetrized geometry.

  ==> Convergence Check <==

  Measures of convergence in internal coordinates in au.
  Criteria marked as inactive (o), active & met (*), and active & unmet ( ).
  ---------------------------------------------------------------------------------------------
   Step     Total Energy     Delta E     MAX Force     RMS Force      MAX Disp      RMS Disp   
  ---------------------------------------------------------------------------------------------
    Convergence Criteria             o    2.00e-06 *    1.00e-06 *    6.00e-06 *    4.00e-06 *
  ---------------------------------------------------------------------------------------------
      3   -1389.77845653   -7.82e-05 o    4.92e-03      2.22e-03      1.18e-02      5.37e-03    ~
  ---------------------------------------------------------------------------------------------

	Writing optimization data to binary file.
	Structure for next step:
	Cartesian Geometry (in Angstrom)
	   CR    -0.0008984483   0.0598101448  -0.0131641894
	    O     1.0121058195   0.8035859757  -0.9179320805
	    O    -1.0404885454   1.0853085394   0.5021907095
	    F    -0.7844876662  -1.1296260237  -0.9097755089
	    F     0.8107833947  -0.6203999396   1.2949523853
			--------------------------
			 OPTKING Finished Execution 
			--------------------------

    Structure for next step:
    Molecular point group: c1
    Full point group: C1

    Geometry (in Angstrom), charge = 0, multiplicity = 1:

    CR          -0.000889686651     0.059223098532    -0.013034958116
    O            1.012114585162     0.802998932432    -0.917802852742
    O           -1.040479787814     1.084721497245     0.502319942819
    F           -0.784478907633    -1.130213074599    -0.909646281152
    F            0.810792159611    -0.620986988459     1.295081621724

gradient() will perform analytic gradient computation.

*** tstart() called on thinkpad
*** at Sat Jul 10 14:56:18 2021

   => Loading Basis Set <=

    Name: DEF2-SV(P)
    Role: ORBITAL
    Keyword: BASIS
    atoms 1   entry CR         line   606 file /usr/share/psi4/basis/def2-sv_p_.gbs 
    atoms 2-3 entry O          line   128 file /usr/share/psi4/basis/def2-sv_p_.gbs 
    atoms 4-5 entry F          line   148 file /usr/share/psi4/basis/def2-sv_p_.gbs 


         ---------------------------------------------------------
                                   SCF
               by Justin Turney, Rob Parrish, Andy Simmonett
                          and Daniel G. A. Smith
                              RKS Reference
                        4 Threads,   7629 MiB Core
         ---------------------------------------------------------

  ==> Geometry <==

    Molecular point group: c1
    Full point group: C1

    Geometry (in Angstrom), charge = 0, multiplicity = 1:

       Center              X                  Y                   Z               Mass       
    ------------   -----------------  -----------------  -----------------  -----------------
         CR          -0.000889686651     0.059223098532    -0.013034958116    51.940506230000
         O            1.012114585162     0.802998932432    -0.917802852742    15.994914619570
         O           -1.040479787814     1.084721497245     0.502319942819    15.994914619570
         F           -0.784478907633    -1.130213074599    -0.909646281152    18.998403162730
         F            0.810792159611    -0.620986988459     1.295081621724    18.998403162730

  Running in c1 symmetry.

  Rotational constants: A =      0.15176  B =      0.13675  C =      0.12633 [cm^-1]
  Rotational constants: A =   4549.52407  B =   4099.78404  C =   3787.38312 [MHz]
  Nuclear repulsion =  353.761917412613627

  Charge       = 0
  Multiplicity = 1
  Electrons    = 58
  Nalpha       = 29
  Nbeta        = 29

  ==> Algorithm <==

  SCF Algorithm Type is DF.
  DIIS enabled.
  MOM disabled.
  Fractional occupation disabled.
  Guess Type is READ.
  Energy threshold   = 1.00e-08
  Density threshold  = 1.00e-08
  Integral threshold = 0.00e+00

  ==> Primary Basis <==

  Basis Set: DEF2-SV(P)
    Blend: DEF2-SV(P)
    Number of shells: 34
    Number of basis function: 80
    Number of Cartesian functions: 86
    Spherical Harmonics?: true
    Max angular momentum: 2

  ==> DFT Potential <==

   => Composite Functional: MY LDA <= 

    Slater exchange
    Perdew & Wang
    P. A. M. Dirac, Math. Proc. Cambridge Philos. Soc. 26, 376 (1930)
    F. Bloch, Z. Phys. 57, 545 (1929)
    J. P. Perdew and Y. Wang, Phys. Rev. B 45, 13244 (1992)

    Deriv               =              1
    GGA                 =          FALSE
    Meta                =          FALSE

    Exchange Hybrid     =          FALSE
    MP2 Hybrid          =          FALSE

   => Exchange Functionals <=

    1.0000         XC_lda_x

   => Correlation Functionals <=

    1.0000      XC_lda_c_pw

   => Molecular Quadrature <=

    Radial Scheme          =       TREUTLER
    Pruning Scheme         =           FLAT
    Nuclear Scheme         =       TREUTLER

    BS radius alpha        =              1
    Pruning alpha          =              1
    Radial Points          =             75
    Spherical Points       =            302
    Total Points           =         113250
    Total Blocks           =            921
    Max Points             =            255
    Max Functions          =             77

   => Loading Basis Set <=

    Name: (DEF2-SV(P) AUX)
    Role: JKFIT
    Keyword: DF_BASIS_SCF
    atoms 1   entry CR         line  1731 file /usr/share/psi4/basis/def2-sv_p_-jkfit.gbs 
    atoms 2-3 entry O          line   323 file /usr/share/psi4/basis/def2-sv_p_-jkfit.gbs 
    atoms 4-5 entry F          line   383 file /usr/share/psi4/basis/def2-sv_p_-jkfit.gbs 

   => Loading Basis Set <=

    Name: DEF2-SV(P)
    Role: ORBITAL
    Keyword: BASIS
    atoms 1   entry CR         line   606 file /usr/share/psi4/basis/def2-sv_p_.gbs 
    atoms 2-3 entry O          line   128 file /usr/share/psi4/basis/def2-sv_p_.gbs 
    atoms 4-5 entry F          line   148 file /usr/share/psi4/basis/def2-sv_p_.gbs 

  Reading orbitals from file 180, no projection.

  ==> Pre-Iterations <==

   -------------------------------------------------------
    Irrep   Nso     Nmo     Nalpha   Nbeta   Ndocc  Nsocc
   -------------------------------------------------------
     A         80      80       0       0       0       0
   -------------------------------------------------------
    Total      80      80      29      29      29       0
   -------------------------------------------------------

  ==> Integral Setup <==

  DFHelper Memory: AOs need 0.031 GiB; user supplied 5.540 GiB. Using in-core AOs.

  ==> MemDFJK: Density-Fitted J/K Matrices <==

    J tasked:                   Yes
    K tasked:                    No
    wK tasked:                   No
    OpenMP threads:               4
    Memory [MiB]:              5673
    Algorithm:                 Core
    Schwarz Cutoff:           1E-12
    Mask sparsity (%):       1.2188
    Fitting Condition:        1E-10

   => Auxiliary Basis Set <=

  Basis Set: (DEF2-SV(P) AUX)
    Blend: DEF2-SV_P_-JKFIT
    Number of shells: 158
    Number of basis function: 572
    Number of Cartesian functions: 749
    Spherical Harmonics?: true
    Max angular momentum: 6

  Cached 100.0% of DFT collocation blocks in 0.048 [GiB].

  Minimum eigenvalue in the overlap matrix is 1.8466948509E-02.
  Using Symmetric Orthogonalization.

  SCF Guess: Orbitals guess was supplied from a previous computation.

  ==> Iterations <==

                           Total Energy        Delta E     RMS |[F,P]|

   @DF-RKS iter   0: -1389.77542534266695   -1.38978e+03   3.67279e-04 
   @DF-RKS iter   1: -1389.77849937791120   -3.07404e-03   8.79012e-05 DIIS
   @DF-RKS iter   2: -1389.77771095491698    7.88423e-04   5.98414e-04 DIIS
   @DF-RKS iter   3: -1389.77846429979309   -7.53345e-04   1.61220e-04 DIIS
   @DF-RKS iter   4: -1389.77852085218410   -5.65524e-05   2.48677e-05 DIIS
   @DF-RKS iter   5: -1389.77852219458055   -1.34240e-06   6.44048e-06 DIIS
   @DF-RKS iter   6: -1389.77852229307382   -9.84933e-08   3.21817e-07 DIIS
   @DF-RKS iter   7: -1389.77852229301106    6.27551e-11   3.32583e-07 DIIS
   @DF-RKS iter   8: -1389.77852229326822   -2.57160e-10   1.13198e-07 DIIS
   @DF-RKS iter   9: -1389.77852229330119   -3.29692e-11   8.16337e-09 DIIS
  Energy and wave function converged.


  ==> Post-Iterations <==

    Orbital Energies [Eh]
    ---------------------

    Doubly Occupied:                                                      

       1A   -214.157028     2A    -24.447217     3A    -24.144908  
       4A    -24.144907     5A    -20.869367     6A    -20.868767  
       7A    -20.864722     8A    -18.701277     9A    -18.701267  
      10A     -2.903134    11A     -1.910853    12A     -1.910663  
      13A     -1.905467    14A     -1.073851    15A     -1.068398  
      16A     -0.883334    17A     -0.872382    18A     -0.484794  
      19A     -0.478083    20A     -0.463717    21A     -0.463047  
      22A     -0.459938    23A     -0.421751    24A     -0.412729  
      25A     -0.396519    26A     -0.380651    27A     -0.367097  
      28A     -0.365258    29A     -0.324645  

    Virtual:                                                              

      30A     -0.219084    31A     -0.204438    32A     -0.174463  
      33A     -0.141460    34A     -0.118690    35A     -0.008960  
      36A      0.138319    37A      0.183263    38A      0.184358  
      39A      0.187159    40A      0.520763    41A      0.525211  
      42A      0.544006    43A      0.573817    44A      0.584033  
      45A      0.851006    46A      0.865612    47A      0.899603  
      48A      0.927344    49A      0.928855    50A      0.957750  
      51A      1.054182    52A      1.077703    53A      1.131562  
      54A      1.139014    55A      1.163265    56A      1.165832  
      57A      1.282138    58A      1.353578    59A      1.594469  
      60A      1.605905    61A      2.434301    62A      2.439848  
      63A      2.461898    64A      2.474915    65A      2.483150  
      66A      2.518442    67A      2.542883    68A      2.566526  
      69A      2.573836    70A      2.675075    71A      2.904010  
      72A      2.909167    73A      2.919202    74A      2.920386  
      75A      2.926579    76A      2.964978    77A      2.977816  
      78A      3.009721    79A      3.142093    80A      3.143114  

    Final Occupation by Irrep:
              A 
    DOCC [    29 ]

  @DF-RKS Final Energy: -1389.77852229330119

   => Energetics <=

    Nuclear Repulsion Energy =            353.7619174126136272
    One-Electron Energy =               -2622.6177314310152724
    Two-Electron Energy =                 960.9417910979398130
    DFT Exchange-Correlation Energy =     -81.8644993728391626
    Empirical Dispersion Energy =           0.0000000000000000
    VV10 Nonlocal Energy =                  0.0000000000000000
    Total Energy =                      -1389.7785222933011937

Computation Completed


Properties will be evaluated at   0.000000,   0.000000,   0.000000 [a0]

Properties computed using the SCF density matrix

  Nuclear Dipole Moment: [e a0]
     X:    -0.0216      Y:     1.4406      Z:    -0.3171

  Electronic Dipole Moment: [e a0]
     X:     0.0236      Y:    -1.5673      Z:     0.3449

  Dipole Moment: [e a0]
     X:     0.0019      Y:    -0.1267      Z:     0.0279     Total:     0.1297

  Dipole Moment: [D]
     X:     0.0048      Y:    -0.3220      Z:     0.0709     Total:     0.3297


*** tstop() called on thinkpad at Sat Jul 10 14:56:21 2021
Module time:
	user time   =       5.03 seconds =       0.08 minutes
	system time =       0.05 seconds =       0.00 minutes
	total time  =          3 seconds =       0.05 minutes
Total time:
	user time   =      33.77 seconds =       0.56 minutes
	system time =       0.34 seconds =       0.01 minutes
	total time  =         17 seconds =       0.28 minutes

*** tstart() called on thinkpad
*** at Sat Jul 10 14:56:21 2021


         ------------------------------------------------------------
                                   SCF GRAD                          
                          Rob Parrish, Justin Turney,                
                       Andy Simmonett, and Alex Sokolov              
         ------------------------------------------------------------

  ==> Geometry <==

    Molecular point group: c1
    Full point group: C1

    Geometry (in Angstrom), charge = 0, multiplicity = 1:

       Center              X                  Y                   Z               Mass       
    ------------   -----------------  -----------------  -----------------  -----------------
         CR          -0.000889686651     0.059223098532    -0.013034958116    51.940506230000
         O            1.012114585162     0.802998932432    -0.917802852742    15.994914619570
         O           -1.040479787814     1.084721497245     0.502319942819    15.994914619570
         F           -0.784478907633    -1.130213074599    -0.909646281152    18.998403162730
         F            0.810792159611    -0.620986988459     1.295081621724    18.998403162730

  Nuclear repulsion =  353.761917412613627

  ==> Basis Set <==

  Basis Set: DEF2-SV(P)
    Blend: DEF2-SV(P)
    Number of shells: 34
    Number of basis function: 80
    Number of Cartesian functions: 86
    Spherical Harmonics?: true
    Max angular momentum: 2

  ==> DFJKGrad: Density-Fitted SCF Gradients <==

    Gradient:                    1
    J tasked:                  Yes
    K tasked:                   No
    wK tasked:                  No
    OpenMP threads:              4
    Integrals threads:           4
    Memory [MiB]:             5722
    Schwarz Cutoff:          0E+00
    Fitting Condition:       1E-10

   => Auxiliary Basis Set <=

  Basis Set: (DEF2-SV(P) AUX)
    Blend: DEF2-SV_P_-JKFIT
    Number of shells: 158
    Number of basis function: 572
    Number of Cartesian functions: 749
    Spherical Harmonics?: true
    Max angular momentum: 6

  ==> DFT Potential <==

   => Composite Functional: MY LDA <= 

    Slater exchange
    Perdew & Wang
    P. A. M. Dirac, Math. Proc. Cambridge Philos. Soc. 26, 376 (1930)
    F. Bloch, Z. Phys. 57, 545 (1929)
    J. P. Perdew and Y. Wang, Phys. Rev. B 45, 13244 (1992)

    Deriv               =              1
    GGA                 =          FALSE
    Meta                =          FALSE

    Exchange Hybrid     =          FALSE
    MP2 Hybrid          =          FALSE

   => Exchange Functionals <=

    1.0000         XC_lda_x

   => Correlation Functionals <=

    1.0000      XC_lda_c_pw

   => Molecular Quadrature <=

    Radial Scheme          =       TREUTLER
    Pruning Scheme         =           FLAT
    Nuclear Scheme         =       TREUTLER

    BS radius alpha        =              1
    Pruning alpha          =              1
    Radial Points          =             75
    Spherical Points       =            302
    Total Points           =         113250
    Total Blocks           =            921
    Max Points             =            255
    Max Functions          =             77


  -Total Gradient:
     Atom            X                  Y                   Z
    ------   -----------------  -----------------  -----------------
       1        0.000016572832    -0.001092875772     0.000240483046
       2        0.000273607820     0.000246827762    -0.000254992577
       3       -0.000282238436     0.000323105242     0.000129595099
       4        0.000292293698     0.000306481156     0.000361734054
       5       -0.000298756319     0.000117838307    -0.000455111328


*** tstop() called on thinkpad at Sat Jul 10 14:56:22 2021
Module time:
	user time   =       2.89 seconds =       0.05 minutes
	system time =       0.02 seconds =       0.00 minutes
	total time  =          1 seconds =       0.02 minutes
Total time:
	user time   =      36.66 seconds =       0.61 minutes
	system time =       0.36 seconds =       0.01 minutes
	total time  =         18 seconds =       0.30 minutes

			-----------------------------------------
			 OPTKING 2.0: for geometry optimizations 
			  - R.A. King,  Bethel University        
			-----------------------------------------

	Previous internal coordinate definitions found.
	---Fragment 1 Geometry and Gradient---
	 CR         -0.0016812641        0.1119154365       -0.0246325009
	 O           1.9126193735        1.5174480613       -1.7343960288
	 O          -1.9662218380        2.0498265522        0.9492471193
	 F          -1.4824502866       -2.1357931744       -1.7189823424
	 F           1.5321751263       -1.1734953357        2.4473495752
	             0.0000165728       -0.0010928758        0.0002404830
	             0.0002736078        0.0002468278       -0.0002549926
	            -0.0002822384        0.0003231052        0.0001295951
	             0.0002922937        0.0003064812        0.0003617341
	            -0.0002987563        0.0001178383       -0.0004551113

	---Fragment 1 Intrafragment Coordinates---
	 - Coordinate -           - BOHR/RAD -       - ANG/DEG -
	 R(1,2)           =         2.926322	       1.548543
	 R(1,3)           =         2.926322	       1.548543
	 R(1,4)           =         3.180518	       1.683057
	 R(1,5)           =         3.180518	       1.683057
	 B(2,1,3)         =         1.891815	     108.393029
	 B(2,1,4)         =         1.910009	     109.435450
	 B(2,1,5)         =         1.910009	     109.435464
	 B(3,1,4)         =         1.910008	     109.435412
	 B(3,1,5)         =         1.910008	     109.435416
	 B(4,1,5)         =         1.931532	     110.668626

	Current energy   :     -1389.7785222933

	Energy change for the previous step:
		Projected    :        -0.0001174477
		Actual       :        -0.0000657639

	Performing BFGS update.
	Previous computed or guess Hessian on step 1.
	Steps to be used in Hessian update: 3 2
	Taking RFO optimization step.
	Going to follow RFO solution 1.
	Using RFO vector 1.
	Norm of target step-size    0.00234
	Projected energy change by RFO approximation:        -0.0000017519

	Back-transformation to cartesian coordinates...
	Successfully converged to displaced geometry.

	--- Internal Coordinate Step in ANG or DEG, aJ/ANG or AJ/DEG ---
	 ---------------------------------------------------------------------------
	   Coordinate                Previous        Force       Change         New 
	   ----------                --------       ------       ------       ------
	    1 R(1,2)          =      1.548543    -0.003776    -0.000091     1.548452
	    2 R(1,3)          =      1.548543    -0.003777    -0.000091     1.548452
	    3 R(1,4)          =      1.683057     0.004588     0.000783     1.683841
	    4 R(1,5)          =      1.683057     0.004588     0.000783     1.683841
	    5 B(2,1,3)        =    108.393029     0.000006     0.011119   108.404148
	    6 B(2,1,4)        =    109.435450    -0.000006    -0.015076   109.420374
	    7 B(2,1,5)        =    109.435464    -0.000006    -0.015080   109.420384
	    8 B(3,1,4)        =    109.435412    -0.000006    -0.015046   109.420366
	    9 B(3,1,5)        =    109.435416    -0.000006    -0.015043   109.420372
	   10 B(4,1,5)        =    110.668626     0.000017     0.048379   110.717006
	 ---------------------------------------------------------------------------
	Successfully symmetrized geometry.

  ==> Convergence Check <==

  Measures of convergence in internal coordinates in au.
  Criteria marked as inactive (o), active & met (*), and active & unmet ( ).
  ---------------------------------------------------------------------------------------------
   Step     Total Energy     Delta E     MAX Force     RMS Force      MAX Disp      RMS Disp   
  ---------------------------------------------------------------------------------------------
    Convergence Criteria             o    2.00e-06 *    1.00e-06 *    6.00e-06 *    4.00e-06 *
  ---------------------------------------------------------------------------------------------
      4   -1389.77852229   -6.58e-05 o    5.57e-04      3.35e-04      1.48e-03      7.39e-04    ~
  ---------------------------------------------------------------------------------------------

	Writing optimization data to binary file.
	Structure for next step:
	Cartesian Geometry (in Angstrom)
	   CR    -0.0008900881   0.0592371276  -0.0130379193
	    O     1.0121283886   0.8028401803  -0.9177761376
	    O    -1.0404889953   1.0845662723   0.5023624206
	    F    -0.7850851638  -1.1302559411  -0.9105143247
[...]
  Density threshold  = 1.00e-08
  Integral threshold = 0.00e+00

  ==> Primary Basis <==

  Basis Set: DEF2-SV(P)
    Blend: DEF2-SV(P)
    Number of shells: 34
    Number of basis function: 80
    Number of Cartesian functions: 86
    Spherical Harmonics?: true
    Max angular momentum: 2

  ==> DFT Potential <==

   => Composite Functional: MY LDA <= 

    Slater exchange
    Perdew & Wang
    P. A. M. Dirac, Math. Proc. Cambridge Philos. Soc. 26, 376 (1930)
    F. Bloch, Z. Phys. 57, 545 (1929)
    J. P. Perdew and Y. Wang, Phys. Rev. B 45, 13244 (1992)

    Deriv               =              1
    GGA                 =          FALSE
    Meta                =          FALSE

    Exchange Hybrid     =          FALSE
    MP2 Hybrid          =          FALSE

   => Exchange Functionals <=

    1.0000         XC_lda_x

   => Correlation Functionals <=

    1.0000      XC_lda_c_pw

   => Molecular Quadrature <=

    Radial Scheme          =       TREUTLER
    Pruning Scheme         =           FLAT
    Nuclear Scheme         =       TREUTLER

    BS radius alpha        =              1
    Pruning alpha          =              1
    Radial Points          =             75
    Spherical Points       =            302
    Total Points           =         113250
    Total Blocks           =            920
    Max Points             =            255
    Max Functions          =             77

   => Loading Basis Set <=

    Name: (DEF2-SV(P) AUX)
    Role: JKFIT
    Keyword: DF_BASIS_SCF
    atoms 1   entry CR         line  1731 file /usr/share/psi4/basis/def2-sv_p_-jkfit.gbs 
    atoms 2-3 entry O          line   323 file /usr/share/psi4/basis/def2-sv_p_-jkfit.gbs 
    atoms 4-5 entry F          line   383 file /usr/share/psi4/basis/def2-sv_p_-jkfit.gbs 

   => Loading Basis Set <=

    Name: DEF2-SV(P)
    Role: ORBITAL
    Keyword: BASIS
    atoms 1   entry CR         line   606 file /usr/share/psi4/basis/def2-sv_p_.gbs 
    atoms 2-3 entry O          line   128 file /usr/share/psi4/basis/def2-sv_p_.gbs 
    atoms 4-5 entry F          line   148 file /usr/share/psi4/basis/def2-sv_p_.gbs 

  Reading orbitals from file 180, no projection.

  ==> Pre-Iterations <==

   -------------------------------------------------------
    Irrep   Nso     Nmo     Nalpha   Nbeta   Ndocc  Nsocc
   -------------------------------------------------------
     A         80      80       0       0       0       0
   -------------------------------------------------------
    Total      80      80      29      29      29       0
   -------------------------------------------------------

  ==> Integral Setup <==

  DFHelper Memory: AOs need 0.031 GiB; user supplied 5.540 GiB. Using in-core AOs.

  ==> MemDFJK: Density-Fitted J/K Matrices <==

    J tasked:                   Yes
    K tasked:                    No
    wK tasked:                   No
    OpenMP threads:               4
    Memory [MiB]:              5673
    Algorithm:                 Core
    Schwarz Cutoff:           1E-12
    Mask sparsity (%):       1.2188
    Fitting Condition:        1E-10

   => Auxiliary Basis Set <=

  Basis Set: (DEF2-SV(P) AUX)
    Blend: DEF2-SV_P_-JKFIT
    Number of shells: 158
    Number of basis function: 572
    Number of Cartesian functions: 749
    Spherical Harmonics?: true
    Max angular momentum: 6

  Cached 100.0% of DFT collocation blocks in 0.048 [GiB].

  Minimum eigenvalue in the overlap matrix is 1.8468720524E-02.
  Using Symmetric Orthogonalization.

  SCF Guess: Orbitals guess was supplied from a previous computation.

  ==> Iterations <==

                           Total Energy        Delta E     RMS |[F,P]|

   @DF-RKS iter   0: -1389.77852445214717   -1.38978e+03   2.38269e-07 
   @DF-RKS iter   1: -1389.77852384222297    6.09924e-07   4.39227e-08 DIIS
   @DF-RKS iter   2: -1389.77852384203220    1.90767e-10   2.72235e-07 DIIS
   @DF-RKS iter   3: -1389.77852384222729   -1.95087e-10   2.16223e-08 DIIS
   @DF-RKS iter   4: -1389.77852384222479    2.50111e-12   2.30453e-08 DIIS
   @DF-RKS iter   5: -1389.77852384222660   -1.81899e-12   6.63450e-09 DIIS
  Energy and wave function converged.


  ==> Post-Iterations <==

    Orbital Energies [Eh]
    ---------------------

    Doubly Occupied:                                                      

       1A   -214.157096     2A    -24.447270     3A    -24.144726  
       4A    -24.144724     5A    -20.869416     6A    -20.868820  
       7A    -20.864781     8A    -18.701396     9A    -18.701386  
      10A     -2.903178    11A     -1.910865    12A     -1.910796  
      13A     -1.905432    14A     -1.073607    15A     -1.068143  
      16A     -0.883495    17A     -0.872523    18A     -0.484544  
      19A     -0.477971    20A     -0.463547    21A     -0.463000  
      22A     -0.459883    23A     -0.421775    24A     -0.412625  
      25A     -0.396471    26A     -0.380739    27A     -0.367178  
      28A     -0.365260    29A     -0.324782  

    Virtual:                                                              

      30A     -0.219123    31A     -0.204442    32A     -0.174697  
      33A     -0.141417    34A     -0.118670    35A     -0.008984  
      36A      0.138151    37A      0.183435    38A      0.184341  
      39A      0.187013    40A      0.520680    41A      0.525377  
      42A      0.544308    43A      0.573854    44A      0.583879  
      45A      0.850960    46A      0.865524    47A      0.899495  
      48A      0.927404    49A      0.928851    50A      0.957725  
      51A      1.054253    52A      1.077763    53A      1.131703  
      54A      1.138297    55A      1.163220    56A      1.166036  
      57A      1.282260    58A      1.353217    59A      1.595105  
      60A      1.605551    61A      2.434079    62A      2.439652  
      63A      2.461866    64A      2.474776    65A      2.483134  
      66A      2.518517    67A      2.543023    68A      2.566455  
      69A      2.573561    70A      2.675133    71A      2.904288  
      72A      2.909424    73A      2.919488    74A      2.920518  
      75A      2.926838    76A      2.965513    77A      2.978007  
      78A      3.009484    79A      3.141507    80A      3.143510  

    Final Occupation by Irrep:
              A 
    DOCC [    29 ]

  @DF-RKS Final Energy: -1389.77852384222660

   => Energetics <=

    Nuclear Repulsion Energy =            353.7147977079655448
    One-Electron Energy =               -2622.5242600397150454
    Two-Electron Energy =                 960.8953228695262396
    DFT Exchange-Correlation Energy =     -81.8643843800035711
    Empirical Dispersion Energy =           0.0000000000000000
    VV10 Nonlocal Energy =                  0.0000000000000000
    Total Energy =                      -1389.7785238422266048

Computation Completed


Properties will be evaluated at   0.000000,   0.000000,   0.000000 [a0]

Properties computed using the SCF density matrix

  Nuclear Dipole Moment: [e a0]
     X:    -0.0216      Y:     1.4399      Z:    -0.3169

  Electronic Dipole Moment: [e a0]
     X:     0.0235      Y:    -1.5651      Z:     0.3445

  Dipole Moment: [e a0]
     X:     0.0019      Y:    -0.1253      Z:     0.0276     Total:     0.1283

  Dipole Moment: [D]
     X:     0.0048      Y:    -0.3184      Z:     0.0701     Total:     0.3261


*** tstop() called on thinkpad at Sat Jul 10 14:56:55 2021
Module time:
	user time   =       4.03 seconds =       0.07 minutes
	system time =       0.05 seconds =       0.00 minutes
	total time  =          2 seconds =       0.03 minutes
Total time:
	user time   =      99.71 seconds =       1.66 minutes
	system time =       0.94 seconds =       0.02 minutes
	total time  =         51 seconds =       0.85 minutes

*** tstart() called on thinkpad
*** at Sat Jul 10 14:56:55 2021


         ------------------------------------------------------------
                                   SCF GRAD                          
                          Rob Parrish, Justin Turney,                
                       Andy Simmonett, and Alex Sokolov              
         ------------------------------------------------------------

  ==> Geometry <==

    Molecular point group: c1
    Full point group: C1

    Geometry (in Angstrom), charge = 0, multiplicity = 1:

       Center              X                  Y                   Z               Mass       
    ------------   -----------------  -----------------  -----------------  -----------------
         CR          -0.000886720779     0.059009379123    -0.012987793602    51.940506230000
         O            1.011916285527     0.802427766958    -0.917527320488    15.994914619570
         O           -1.040263450280     1.084094007135     0.502308356223    15.994914619570
         F           -0.785519896097    -1.129744939832    -0.911244379364    18.998403162730
         F            0.811809853302    -0.619861668883     1.296328556897    18.998403162730

  Nuclear repulsion =  353.714797707965545

  ==> Basis Set <==

  Basis Set: DEF2-SV(P)
    Blend: DEF2-SV(P)
    Number of shells: 34
    Number of basis function: 80
    Number of Cartesian functions: 86
    Spherical Harmonics?: true
    Max angular momentum: 2

  ==> DFJKGrad: Density-Fitted SCF Gradients <==

    Gradient:                    1
    J tasked:                  Yes
    K tasked:                   No
    wK tasked:                  No
    OpenMP threads:              4
    Integrals threads:           4
    Memory [MiB]:             5722
    Schwarz Cutoff:          0E+00
    Fitting Condition:       1E-10

   => Auxiliary Basis Set <=

  Basis Set: (DEF2-SV(P) AUX)
    Blend: DEF2-SV_P_-JKFIT
    Number of shells: 158
    Number of basis function: 572
    Number of Cartesian functions: 749
    Spherical Harmonics?: true
    Max angular momentum: 6

  ==> DFT Potential <==

   => Composite Functional: MY LDA <= 

    Slater exchange
    Perdew & Wang
    P. A. M. Dirac, Math. Proc. Cambridge Philos. Soc. 26, 376 (1930)
    F. Bloch, Z. Phys. 57, 545 (1929)
    J. P. Perdew and Y. Wang, Phys. Rev. B 45, 13244 (1992)

    Deriv               =              1
    GGA                 =          FALSE
    Meta                =          FALSE

    Exchange Hybrid     =          FALSE
    MP2 Hybrid          =          FALSE

   => Exchange Functionals <=

    1.0000         XC_lda_x

   => Correlation Functionals <=

    1.0000      XC_lda_c_pw

   => Molecular Quadrature <=

    Radial Scheme          =       TREUTLER
    Pruning Scheme         =           FLAT
    Nuclear Scheme         =       TREUTLER

    BS radius alpha        =              1
    Pruning alpha          =              1
    Radial Points          =             75
    Spherical Points       =            302
    Total Points           =         113250
    Total Blocks           =            920
    Max Points             =            255
    Max Functions          =             77


  -Total Gradient:
     Atom            X                  Y                   Z
    ------   -----------------  -----------------  -----------------
       1        0.000000288376    -0.000021963863     0.000004847777
       2        0.000001150931    -0.000019298880     0.000003627980
       3       -0.000000553431    -0.000019060805     0.000004805939
       4        0.000000252695    -0.000019493305     0.000004214923
       5        0.000000353825    -0.000019465247     0.000004354723


*** tstop() called on thinkpad at Sat Jul 10 14:56:56 2021
Module time:
	user time   =       2.88 seconds =       0.05 minutes
	system time =       0.03 seconds =       0.00 minutes
	total time  =          1 seconds =       0.02 minutes
Total time:
	user time   =     102.59 seconds =       1.71 minutes
	system time =       0.97 seconds =       0.02 minutes
	total time  =         52 seconds =       0.87 minutes

			-----------------------------------------
			 OPTKING 2.0: for geometry optimizations 
			  - R.A. King,  Bethel University        
			-----------------------------------------

	Previous internal coordinate definitions found.
	---Fragment 1 Geometry and Gradient---
	 CR         -0.0016756594        0.1115115654       -0.0245433729
	 O           1.9122446415        1.5163687150       -1.7338753483
	 O          -1.9658130194        2.0486407677        0.9492252238
	 F          -1.4844174697       -2.1349085279       -1.7220023104
	 F           1.5340982887       -1.1713687899        2.4497059411
	             0.0000002884       -0.0000219639        0.0000048478
	             0.0000011509       -0.0000192989        0.0000036280
	            -0.0000005534       -0.0000190608        0.0000048059
	             0.0000002527       -0.0000194933        0.0000042149
	             0.0000003538       -0.0000194652        0.0000043547

	---Fragment 1 Intrafragment Coordinates---
	 - Coordinate -           - BOHR/RAD -       - ANG/DEG -
	 R(1,2)           =         2.925497	       1.548106
	 R(1,3)           =         2.925497	       1.548106
	 R(1,4)           =         3.182184	       1.683939
	 R(1,5)           =         3.182184	       1.683939
	 B(2,1,3)         =         1.892037	     108.405747
	 B(2,1,4)         =         1.909388	     109.399901
	 B(2,1,5)         =         1.909388	     109.399901
	 B(3,1,4)         =         1.909389	     109.399910
	 B(3,1,5)         =         1.909389	     109.399911
	 B(4,1,5)         =         1.933750	     110.795687

	Current energy   :     -1389.7785238422

	Energy change for the previous step:
		Projected    :        -0.0000000000
		Actual       :         0.0000000001

	Performing BFGS update.
	Previous computed or guess Hessian on step 1.
	Denominators (dg)(dq) or (dq)(dq) are very small.
	 Skipping Hessian update for step 12.
	Denominators (dg)(dq) or (dq)(dq) are very small.
	 Skipping Hessian update for step 11.
	Denominators (dg)(dq) or (dq)(dq) are very small.
	 Skipping Hessian update for step 10.
	Denominators (dg)(dq) or (dq)(dq) are very small.
	 Skipping Hessian update for step 9.
	Denominators (dg)(dq) or (dq)(dq) are very small.
	 Skipping Hessian update for step 8.
	Denominators (dg)(dq) or (dq)(dq) are very small.
	 Skipping Hessian update for step 7.
	Steps to be used in Hessian update: 6 5
	Taking RFO optimization step.
	Going to follow RFO solution 1.
	Using RFO vector 1.
	Norm of target step-size    0.00001
	Projected energy change by RFO approximation:        -0.0000000000

	Back-transformation to cartesian coordinates...
	Successfully converged to displaced geometry.

	--- Internal Coordinate Step in ANG or DEG, aJ/ANG or AJ/DEG ---
	 ---------------------------------------------------------------------------
	   Coordinate                Previous        Force       Change         New 
	   ----------                --------       ------       ------       ------
	    1 R(1,2)          =      1.548106    -0.000010    -0.000001     1.548105
	    2 R(1,3)          =      1.548106    -0.000010    -0.000001     1.548105
	    3 R(1,4)          =      1.683939     0.000001     0.000000     1.683939
	    4 R(1,5)          =      1.683939     0.000001     0.000000     1.683939
	    5 B(2,1,3)        =    108.405747     0.000000     0.000008   108.405754
	    6 B(2,1,4)        =    109.399901     0.000000     0.000081   109.399982
	    7 B(2,1,5)        =    109.399901     0.000000     0.000083   109.399984
	    8 B(3,1,4)        =    109.399910     0.000000     0.000072   109.399982
	    9 B(3,1,5)        =    109.399911     0.000000     0.000073   109.399985
	   10 B(4,1,5)        =    110.795687    -0.000000    -0.000310   110.795377
	 ---------------------------------------------------------------------------
	Successfully symmetrized geometry.

  ==> Convergence Check <==

  Measures of convergence in internal coordinates in au.
  Criteria marked as inactive (o), active & met (*), and active & unmet ( ).
  ---------------------------------------------------------------------------------------------
   Step     Total Energy     Delta E     MAX Force     RMS Force      MAX Disp      RMS Disp   
  ---------------------------------------------------------------------------------------------
    Convergence Criteria             o    2.00e-06 *    1.00e-06 *    6.00e-06 *    4.00e-06 *
  ---------------------------------------------------------------------------------------------
     13   -1389.77852384    1.21e-10 o    1.26e-06 *    6.54e-07 *    5.41e-06 *    2.02e-06 *  ~
  ---------------------------------------------------------------------------------------------


  **** Optimization is complete! (in 13 steps) ****

  ==> Optimization Summary <==

  Measures of convergence in internal coordinates in au.
  --------------------------------------------------------------------------------------------------------------- ~
   Step         Total Energy             Delta E       MAX Force       RMS Force        MAX Disp        RMS Disp  ~
  --------------------------------------------------------------------------------------------------------------- ~
      1   -1389.777755196987  -1389.777755196987      0.01615904      0.00697009      0.06409549      0.02237096  ~
      2   -1389.778378364577     -0.000623167590      0.00685873      0.00328322      0.00800009      0.00358096  ~
      3   -1389.778456529378     -0.000078164801      0.00492382      0.00221749      0.01182923      0.00536682  ~
      4   -1389.778522293301     -0.000065763924      0.00055692      0.00033512      0.00148025      0.00073948  ~
      5   -1389.778523598477     -0.000001305175      0.00040050      0.00018828      0.00085906      0.00032514  ~
      6   -1389.778523824229     -0.000000225752      0.00028340      0.00012841      0.00081601      0.00031498  ~
      7   -1389.778523888772     -0.000000064544      0.00011527      0.00005308      0.00007786      0.00003946  ~
      8   -1389.778523874708      0.000000014064      0.00006709      0.00003179      0.00008473      0.00003711  ~
      9   -1389.778523862334      0.000000012374      0.00003724      0.00001810      0.00007298      0.00002923  ~
     10   -1389.778523852539      0.000000009795      0.00001871      0.00000932      0.00005038      0.00001940  ~
     11   -1389.778523846967      0.000000005572      0.00000838      0.00000427      0.00002860      0.00001079  ~
     12   -1389.778523842347      0.000000004620      0.00000335      0.00000174      0.00001352      0.00000504  ~
     13   -1389.778523842227      0.000000000121      0.00000126      0.00000065      0.00000541      0.00000202  ~
  --------------------------------------------------------------------------------------------------------------- ~

	Writing optimization data to binary file.
	Final energy is  -1389.7785238422266
	Final (previous) structure:
	Cartesian Geometry (in Angstrom)
	   CR    -0.0008867208   0.0590093789  -0.0129877936
	    O     1.0119162815   0.8024277638  -0.9175273169
	    O    -1.0402634462   1.0840940029   0.5023083542
	    F    -0.7855198930  -1.1297449354  -0.9112443758
	    F     0.8118098501  -0.6198616664   1.2963285518
	Saving final (previous) structure.
			--------------------------
			 OPTKING Finished Execution 
			--------------------------

    Final optimized geometry and variables:
    Molecular point group: c1
    Full point group: C1

    Geometry (in Angstrom), charge = 0, multiplicity = 1:

    CR          -0.000886720779     0.059009379123    -0.012987793602
    O            1.011916285527     0.802427766958    -0.917527320488
    O           -1.040263450280     1.084094007135     0.502308356223
    F           -0.785519896097    -1.129744939832    -0.911244379364
    F            0.811809853302    -0.619861668883     1.296328556897

	Removing binary optimization data file.
	Cleaning optimization helper files.

    Psi4 stopped on: Saturday, 10 July 2021 02:56PM
    Psi4 wall time for execution: 0:00:52.21

*** Psi4 exiting successfully. Buy a developer a beer!
