
    -----------------------------------------------------------------------
          Psi4: An Open-Source Ab Initio Electronic Structure Package
                               Psi4 1.3.2 release

                         Git: Rev {} zzzzzzz 


    R. M. Parrish, L. A. Burns, D. G. A. Smith, A. C. Simmonett,
    A. E. DePrince III, E. G. Hohenstein, U. Bozkaya, A. Yu. Sokolov,
    R. Di Remigio, R. M. Richard, J. F. Gonthier, A. M. James,
    H. R. McAlexander, A. Kumar, M. Saitow, X. Wang, B. P. Pritchard,
    P. Verma, H. F. Schaefer III, K. Patkowski, R. A. King, E. F. Valeev,
    F. A. Evangelista, J. M. Turney, T. D. Crawford, and C. D. Sherrill,
    J. Chem. Theory Comput. 13(7) pp 3185--3197 (2017).
    (doi: 10.1021/acs.jctc.7b00174)


                         Additional Contributions by
    P. Kraus, H. Kruse, M. H. Lechner, M. C. Schieber, R. A. Shaw,
    A. Alenaizan, R. Galvelis, Z. L. Glick, S. Lehtola, and J. P. Misiewicz

    -----------------------------------------------------------------------


    Psi4 started on: Saturday, 10 July 2021 03:13PM

    Process ID: 1847082
    Host:       thinkpad
    PSIDATADIR: /usr/share/psi4
    Memory:     500.0 MiB
    Threads:    4
    
  ==> Input File <==

--------------------------------------------------------------------------
memory 8 gb

molecule {
symmetry c1
Cr        0.48028725377749    0.32716919378518    0.12128381663197
O         1.51332165941332    1.03448648135578   -0.78955553051410
O        -0.57831537187616    1.32157128739802    0.65757817076212
F        -0.29602430869141   -0.85637252313759   -0.76598418135575
F         1.28459076737678   -0.35182443940140    1.41848772447575
}

set basis def2-QZVP
set geom_maxiter 250

# Use a (75,302) quadrature grid
set dft_radial_points 75
set dft_spherical_points 302

# Very tight geometry optimization
set g_convergence gau_verytight
# Increase allowed number of geometry optimization steps
set geom_maxiter 250

# Use the Hueckel type guess
set guess huckel

my_dft = {
    "name": "my pbe",
    "x_functionals": {"gga_x_pbe": {}},
    "c_functionals": {"gga_c_pbe": {}}
}
optimize('scf', dft_functional=my_dft)
--------------------------------------------------------------------------

  Memory set to   7.451 GiB by Python driver.
gradient() will perform analytic gradient computation.

*** tstart() called on thinkpad
*** at Sat Jul 10 15:13:36 2021

   => Loading Basis Set <=

    Name: DEF2-QZVP
    Role: ORBITAL
    Keyword: BASIS
    atoms 1   entry CR         line  1332 file /usr/share/psi4/basis/def2-qzvp.gbs 
    atoms 2-3 entry O          line   290 file /usr/share/psi4/basis/def2-qzvp.gbs 
    atoms 4-5 entry F          line   338 file /usr/share/psi4/basis/def2-qzvp.gbs 


         ---------------------------------------------------------
                                   SCF
               by Justin Turney, Rob Parrish, Andy Simmonett
                          and Daniel G. A. Smith
                              RKS Reference
                        4 Threads,   7629 MiB Core
         ---------------------------------------------------------

  ==> Geometry <==

    Molecular point group: c1
    Full point group: C1

    Geometry (in Angstrom), charge = 0, multiplicity = 1:

       Center              X                  Y                   Z               Mass       
    ------------   -----------------  -----------------  -----------------  -----------------
         CR          -0.001007494106     0.066977222278    -0.014740872913    51.940506230000
         O            1.032026911530     0.774294509849    -0.925580220059    15.994914619570
         O           -1.059610119760     1.061379315891     0.521553481217    15.994914619570
         F           -0.777319056575    -1.116564494645    -0.902008870901    18.998403162730
         F            0.803296019493    -0.612016410908     1.282463034931    18.998403162730

  Running in c1 symmetry.

  Rotational constants: A =      0.15233  B =      0.13609  C =      0.12992 [cm^-1]
  Rotational constants: A =   4566.71939  B =   4079.72696  C =   3895.02954 [MHz]
  Nuclear repulsion =  355.181605515257786

  Charge       = 0
  Multiplicity = 1
  Electrons    = 58
  Nalpha       = 29
  Nbeta        = 29

  ==> Algorithm <==

  SCF Algorithm Type is DF.
  DIIS enabled.
  MOM disabled.
  Fractional occupation disabled.
  Guess Type is HUCKEL.
  Energy threshold   = 1.00e-08
  Density threshold  = 1.00e-08
  Integral threshold = 0.00e+00

  ==> Primary Basis <==

  Basis Set: DEF2-QZVP
    Blend: DEF2-QZVP
    Number of shells: 94
    Number of basis function: 312
    Number of Cartesian functions: 392
    Spherical Harmonics?: true
    Max angular momentum: 4

  ==> DFT Potential <==

   => Composite Functional: MY PBE <= 

    Perdew, Burke & Ernzerhof
    J. P. Perdew, K. Burke, and M. Ernzerhof, Phys. Rev. Lett. 77, 3865 (1996)
    J. P. Perdew, K. Burke, and M. Ernzerhof, Phys. Rev. Lett. 78, 1396 (1997)

    Deriv               =              1
    GGA                 =           TRUE
    Meta                =          FALSE

    Exchange Hybrid     =          FALSE
    MP2 Hybrid          =          FALSE

   => Exchange Functionals <=

    1.0000     XC_gga_x_pbe

   => Correlation Functionals <=

    1.0000     XC_gga_c_pbe

   => Molecular Quadrature <=

    Radial Scheme          =       TREUTLER
    Pruning Scheme         =           FLAT
    Nuclear Scheme         =       TREUTLER

    BS radius alpha        =              1
    Pruning alpha          =              1
    Radial Points          =             75
    Spherical Points       =            302
    Total Points           =         113250
    Total Blocks           =            920
    Max Points             =            256
    Max Functions          =            294

   => Loading Basis Set <=

    Name: (DEF2-QZVP AUX)
    Role: JKFIT
    Keyword: DF_BASIS_SCF
    atoms 1   entry CR         line  1731 file /usr/share/psi4/basis/def2-qzvp-jkfit.gbs 
    atoms 2-3 entry O          line   323 file /usr/share/psi4/basis/def2-qzvp-jkfit.gbs 
    atoms 4-5 entry F          line   383 file /usr/share/psi4/basis/def2-qzvp-jkfit.gbs 

  ==> Pre-Iterations <==

   -------------------------------------------------------
    Irrep   Nso     Nmo     Nalpha   Nbeta   Ndocc  Nsocc
   -------------------------------------------------------
     A        312     312       0       0       0       0
   -------------------------------------------------------
    Total     312     312      29      29      29       0
   -------------------------------------------------------

  ==> Integral Setup <==

  DFHelper Memory: AOs need 0.425 GiB; user supplied 4.940 GiB. Using in-core AOs.

  ==> MemDFJK: Density-Fitted J/K Matrices <==

    J tasked:                   Yes
    K tasked:                    No
    wK tasked:                   No
    OpenMP threads:               4
    Memory [MiB]:              5058
    Algorithm:                 Core
    Schwarz Cutoff:           1E-12
    Mask sparsity (%):       5.6932
    Fitting Condition:        1E-10

   => Auxiliary Basis Set <=

  Basis Set: (DEF2-QZVP AUX)
    Blend: DEF2-QZVP-JKFIT
    Number of shells: 158
    Number of basis function: 572
    Number of Cartesian functions: 749
    Spherical Harmonics?: true
    Max angular momentum: 6

  Cached 100.0% of DFT collocation blocks in 0.648 [GiB].

  Minimum eigenvalue in the overlap matrix is 3.5411475464E-04.
  Using Symmetric Orthogonalization.

  SCF Guess: Huckel guess via on-the-fly atomic UHF (doi:10.1021/acs.jctc.8b01089).

  ==> Iterations <==

                           Total Energy        Delta E     RMS |[F,P]|

   @DF-RKS iter   1: -1393.38941653080769   -1.39339e+03   8.60481e-03 DIIS
   @DF-RKS iter   2: -1375.46441660049118    1.79250e+01   2.51379e-02 DIIS
   @DF-RKS iter   3: -1392.70468372409232   -1.72403e+01   7.12504e-03 DIIS
   @DF-RKS iter   4: -1388.08668465196592    4.61800e+00   1.52424e-02 DIIS
   @DF-RKS iter   5: -1393.09320376843380   -5.00652e+00   7.53069e-03 DIIS
   @DF-RKS iter   6: -1392.70606102731472    3.87143e-01   8.17862e-03 DIIS
   @DF-RKS iter   7: -1393.47110378746811   -7.65043e-01   6.19659e-03 DIIS
   @DF-RKS iter   8: -1394.40037007127808   -9.29266e-01   6.23444e-04 DIIS
   @DF-RKS iter   9: -1394.40105813595960   -6.88065e-04   6.17650e-04 DIIS
   @DF-RKS iter  10: -1394.39927788053637    1.78026e-03   5.65545e-04 DIIS
   @DF-RKS iter  11: -1394.41080953383744   -1.15317e-02   6.54500e-05 DIIS
   @DF-RKS iter  12: -1394.41096666278827   -1.57129e-04   1.75916e-05 DIIS
   @DF-RKS iter  13: -1394.41097393994664   -7.27716e-06   2.13521e-06 DIIS
   @DF-RKS iter  14: -1394.41097401559614   -7.56495e-08   1.44236e-06 DIIS
   @DF-RKS iter  15: -1394.41097406718859   -5.15925e-08   2.76327e-07 DIIS
   @DF-RKS iter  16: -1394.41097406795188   -7.63293e-10   2.28107e-07 DIIS
   @DF-RKS iter  17: -1394.41097406963513   -1.68325e-09   2.99801e-08 DIIS
   @DF-RKS iter  18: -1394.41097406966151   -2.63753e-11   4.16767e-09 DIIS
  Energy and wave function converged.


  ==> Post-Iterations <==

    Orbital Energies [Eh]
    ---------------------

    Doubly Occupied:                                                      

       1A   -214.665102     2A    -24.467589     3A    -24.303872  
       4A    -24.303872     5A    -20.834485     6A    -20.834146  
       7A    -20.830062     8A    -18.836821     9A    -18.836821  
      10A     -2.904303    11A     -1.899247    12A     -1.899013  
      13A     -1.896059    14A     -1.109879    15A     -1.104330  
      16A     -0.900073    17A     -0.887835    18A     -0.481032  
      19A     -0.475162    20A     -0.457535    21A     -0.456649  
      22A     -0.453231    23A     -0.416687    24A     -0.412520  
      25A     -0.392769    26A     -0.371165    27A     -0.361354  
      28A     -0.359046    29A     -0.319235  

    Virtual:                                                              

      30A     -0.208844    31A     -0.191489    32A     -0.163278  
      33A     -0.125149    34A     -0.108431    35A     -0.020257  
      36A      0.019659    37A      0.020116    38A      0.020349  
      39A      0.107878    40A      0.111537    41A      0.114051  
      42A      0.114162    43A      0.114709    44A      0.115912  
      45A      0.149883    46A      0.154770    47A      0.159556  
      48A      0.291175    49A      0.306962    50A      0.329099  
      51A      0.336891    52A      0.340172    53A      0.347757  
      54A      0.368997    55A      0.372517    56A      0.385171  
      57A      0.395212    58A      0.410535    59A      0.441513  
      60A      0.462756    61A      0.465503    62A      0.472566  
      63A      0.473110    64A      0.479401    65A      0.489100  
      66A      0.505314    67A      0.522597    68A      0.527677  
      69A      0.859991    70A      0.864168    71A      0.936750  
      72A      0.939039    73A      0.950024    74A      0.989629  
      75A      0.990136    76A      1.073137    77A      1.082630  
      78A      1.088211    79A      1.089818    80A      1.101718  
      81A      1.144900    82A      1.175304    83A      1.227357  
      84A      1.239918    85A      1.288373    86A      1.292630  
      87A      1.312083    88A      1.316693    89A      1.329654  
      90A      1.331584    91A      1.333643    92A      1.333961  
      93A      1.357863    94A      1.425175    95A      1.439134  
      96A      1.469208    97A      1.475568    98A      1.505747  
      99A      1.548164   100A      1.552209   101A      1.599149  
     102A      1.622012   103A      1.623502   104A      1.659354  
     105A      1.677608   106A      1.696300   107A      1.697560  
     108A      1.719283   109A      1.827847   110A      1.855111  
     111A      1.897671   112A      2.103016   113A      2.120155  
     114A      2.161798   115A      2.180796   116A      2.273684  
     117A      2.459904   118A      2.484683   119A      2.759346  
     120A      2.816245   121A      2.858642   122A      2.887595  
     123A      2.915029   124A      2.955855   125A      2.994040  
     126A      3.036337   127A      3.085786   128A      3.095116  
     129A      3.121926   130A      3.153218   131A      3.174844  
     132A      3.257956   133A      3.287464   134A      3.288561  
     135A      3.516090   136A      3.527579   137A      3.578002  
     138A      3.612214   139A      3.657950   140A      3.670583  
     141A      3.732498   142A      3.750952   143A      3.775325  
     144A      3.785347   145A      3.870077   146A      3.870513  
     147A      3.926455   148A      3.971205   149A      3.988458  
     150A      3.991732   151A      4.004404   152A      4.039844  
     153A      4.076696   154A      4.084721   155A      4.100152  
     156A      4.122227   157A      4.170375   158A      4.189701  
     159A      4.238364   160A      4.241082   161A      4.265264  
     162A      4.278523   163A      4.348948   164A      4.352631  
     165A      4.369331   166A      4.515388   167A      4.654945  
     168A      4.668830   169A      4.720752   170A      4.792690  
     171A      4.822922   172A      4.847253   173A      4.901301  
     174A      4.911635   175A      4.938120   176A      4.963110  
     177A      4.969492   178A      4.975344   179A      4.988990  
     180A      5.021679   181A      5.062319   182A      5.204804  
     183A      5.233457   184A      5.251246   185A      5.288495  
     186A      5.336121   187A      5.415713   188A      5.621695  
     189A      5.635223   190A      5.724959   191A      5.841168  
     192A      5.891072   193A      6.006994   194A      6.030136  
     195A      6.065222   196A      6.157924   197A      6.233434  
     198A      6.263514   199A      6.275334   200A      6.290199  
     201A      6.442465   202A      6.504036   203A      6.720990  
     204A      6.947719   205A      6.984896   206A      8.644629  
     207A      8.647593   208A      8.655969   209A      8.656227  
     210A      8.656262   211A      8.657704   212A      8.661959  
     213A      8.677120   214A      8.695025   215A      8.724858  
     216A      8.752626   217A      8.761369   218A      8.924657  
     219A      8.934290   220A      9.006385   221A      9.029589  
     222A      9.034260   223A      9.124644   224A      9.174222  
     225A     10.624580   226A     10.659340   227A     10.692390  
     228A     10.693991   229A     10.738637   230A     10.755344  
     231A     10.755867   232A     10.783111   233A     10.824091  
     234A     10.837708   235A     10.896395   236A     10.905304  
     237A     10.960632   238A     10.981232   239A     11.033273  
     240A     11.166254   241A     11.173904   242A     11.179421  
     243A     11.179526   244A     11.190259   245A     11.190435  
     246A     11.190567   247A     11.190758   248A     11.191782  
     249A     11.194511   250A     11.200332   251A     11.201072  
     252A     11.234924   253A     11.254180   254A     11.260991  
     255A     11.318571   256A     11.386796   257A     11.444831  
     258A     11.456629   259A     11.510154   260A     11.618302  
     261A     11.630689   262A     11.742204   263A     11.743304  
     264A     11.761429   265A     11.793209   266A     11.808738  
     267A     11.857927   268A     12.011286   269A     12.019253  
     270A     12.065079   271A     12.133706   272A     12.377300  
     273A     12.566045   274A     13.421658   275A     13.548194  
     276A     14.305296   277A     14.310780   278A     14.324013  
     279A     14.324858   280A     14.394645   281A     14.396836  
     282A     14.407139   283A     14.450723   284A     14.586149  
     285A     14.586177   286A     14.590233   287A     14.623184  
     288A     14.625024   289A     14.683263   290A     15.288905  
     291A     15.323083   292A     15.547194   293A     15.574417  
     294A     15.592487   295A     15.637829   296A     15.809687  
     297A     15.876687   298A     15.909584   299A     15.922151  
     300A     16.320460   301A     16.329409   302A     29.276968  
     303A     47.057519   304A     47.270573   305A     53.724131  
     306A     53.828456   307A     97.846065   308A    251.552588  
     309A    251.793032   310A    284.099235   311A    284.228509  
     312A    621.739376  

    Final Occupation by Irrep:
              A 
    DOCC [    29 ]

  @DF-RKS Final Energy: -1394.41097406966151

   => Energetics <=

    Nuclear Repulsion Energy =            355.1816055152577860
    One-Electron Energy =               -2627.3866103931732141
    Two-Electron Energy =                 963.8025876403283974
    DFT Exchange-Correlation Energy =     -86.0085568320743192
    Empirical Dispersion Energy =           0.0000000000000000
    VV10 Nonlocal Energy =                  0.0000000000000000
    Total Energy =                      -1394.4109740696615063

Computation Completed


Properties will be evaluated at   0.000000,   0.000000,   0.000000 [a0]

Properties computed using the SCF density matrix

  Nuclear Dipole Moment: [e a0]
     X:    -0.0209      Y:     1.3901      Z:    -0.3060

  Electronic Dipole Moment: [e a0]
     X:     0.0230      Y:    -1.5321      Z:     0.3372

  Dipole Moment: [e a0]
     X:     0.0021      Y:    -0.1420      Z:     0.0312     Total:     0.1454

  Dipole Moment: [D]
     X:     0.0054      Y:    -0.3608      Z:     0.0794     Total:     0.3695


*** tstop() called on thinkpad at Sat Jul 10 15:13:51 2021
Module time:
	user time   =      46.59 seconds =       0.78 minutes
	system time =       0.73 seconds =       0.01 minutes
	total time  =         15 seconds =       0.25 minutes
Total time:
	user time   =      46.59 seconds =       0.78 minutes
	system time =       0.73 seconds =       0.01 minutes
	total time  =         15 seconds =       0.25 minutes

*** tstart() called on thinkpad
*** at Sat Jul 10 15:13:51 2021


         ------------------------------------------------------------
                                   SCF GRAD                          
                          Rob Parrish, Justin Turney,                
                       Andy Simmonett, and Alex Sokolov              
         ------------------------------------------------------------

  ==> Geometry <==

    Molecular point group: c1
    Full point group: C1

    Geometry (in Angstrom), charge = 0, multiplicity = 1:

       Center              X                  Y                   Z               Mass       
    ------------   -----------------  -----------------  -----------------  -----------------
         CR          -0.001007494106     0.066977222278    -0.014740872913    51.940506230000
         O            1.032026911530     0.774294509849    -0.925580220059    15.994914619570
         O           -1.059610119760     1.061379315891     0.521553481217    15.994914619570
         F           -0.777319056575    -1.116564494645    -0.902008870901    18.998403162730
         F            0.803296019493    -0.612016410908     1.282463034931    18.998403162730

  Nuclear repulsion =  355.181605515257786

  ==> Basis Set <==

  Basis Set: DEF2-QZVP
    Blend: DEF2-QZVP
    Number of shells: 94
    Number of basis function: 312
    Number of Cartesian functions: 392
    Spherical Harmonics?: true
    Max angular momentum: 4

  ==> DFJKGrad: Density-Fitted SCF Gradients <==

    Gradient:                    1
    J tasked:                  Yes
    K tasked:                   No
    wK tasked:                  No
    OpenMP threads:              4
    Integrals threads:           4
    Memory [MiB]:             5722
    Schwarz Cutoff:          0E+00
    Fitting Condition:       1E-10

   => Auxiliary Basis Set <=

  Basis Set: (DEF2-QZVP AUX)
    Blend: DEF2-QZVP-JKFIT
    Number of shells: 158
    Number of basis function: 572
    Number of Cartesian functions: 749
    Spherical Harmonics?: true
    Max angular momentum: 6

  ==> DFT Potential <==

   => Composite Functional: MY PBE <= 

    Perdew, Burke & Ernzerhof
    J. P. Perdew, K. Burke, and M. Ernzerhof, Phys. Rev. Lett. 77, 3865 (1996)
    J. P. Perdew, K. Burke, and M. Ernzerhof, Phys. Rev. Lett. 78, 1396 (1997)

    Deriv               =              1
    GGA                 =           TRUE
    Meta                =          FALSE

    Exchange Hybrid     =          FALSE
    MP2 Hybrid          =          FALSE

   => Exchange Functionals <=

    1.0000     XC_gga_x_pbe

   => Correlation Functionals <=

    1.0000     XC_gga_c_pbe

   => Molecular Quadrature <=

    Radial Scheme          =       TREUTLER
    Pruning Scheme         =           FLAT
    Nuclear Scheme         =       TREUTLER

    BS radius alpha        =              1
    Pruning alpha          =              1
    Radial Points          =             75
    Spherical Points       =            302
    Total Points           =         113250
    Total Blocks           =            920
    Max Points             =            256
    Max Functions          =            294


  -Total Gradient:
     Atom            X                  Y                   Z
    ------   -----------------  -----------------  -----------------
       1       -0.000009628957     0.000621083887    -0.000136440866
       2       -0.016107874677    -0.019122209252     0.016071867233
       3        0.016750368525    -0.023631687268    -0.006661810907
       4        0.016656469288     0.026469947953     0.018823316261
       5       -0.017288930900     0.015634327300    -0.028090639059


*** tstop() called on thinkpad at Sat Jul 10 15:13:59 2021
Module time:
	user time   =      22.98 seconds =       0.38 minutes
	system time =       0.26 seconds =       0.00 minutes
	total time  =          8 seconds =       0.13 minutes
Total time:
	user time   =      69.58 seconds =       1.16 minutes
	system time =       0.99 seconds =       0.02 minutes
	total time  =         23 seconds =       0.38 minutes

			-----------------------------------------
			 OPTKING 2.0: for geometry optimizations 
			  - R.A. King,  Bethel University        
			-----------------------------------------

	Internal coordinates to be generated automatically.
	Detected frag 1 with atoms:  1 2 3 4 5
	---Fragment 1 Bond Connectivity---
	 1 : 2 3 4 5
	 2 : 1
	 3 : 1
	 4 : 1
	 5 : 1

	---Fragment 1 Geometry and Gradient---
	 CR         -0.0019038879        0.1265686067       -0.0278562127
	 O           1.9502482169        1.4632045641       -1.7490931231
	 O          -2.0023729261        2.0057162223        0.9855932393
	 F          -1.4689201290       -2.1100010963       -1.7045497287
	 F           1.5180094745       -1.1565434009        2.4235039020
	            -0.0000096290        0.0006210839       -0.0001364409
	            -0.0161078747       -0.0191222093        0.0160718672
	             0.0167503685       -0.0236316873       -0.0066618109
	             0.0166564693        0.0264699480        0.0188233163
	            -0.0172889309        0.0156343273       -0.0280906391

	Previous optimization step data not found.  Starting new optimization.

	---Fragment 1 Intrafragment Coordinates---
	 - Coordinate -           - BOHR/RAD -       - ANG/DEG -
	 R(1,2)           =         2.925773	       1.548253
	 R(1,3)           =         2.925774	       1.548253
	 R(1,4)           =         3.156847	       1.670531
	 R(1,5)           =         3.156846	       1.670531
	 B(2,1,3)         =         1.946113	     111.504060
	 B(2,1,4)         =         1.897868	     108.739823
	 B(2,1,5)         =         1.897867	     108.739770
	 B(3,1,4)         =         1.897872	     108.740061
	 B(3,1,5)         =         1.897872	     108.740055
	 B(4,1,5)         =         1.926457	     110.377858

	Current energy   :     -1394.4109740697

	Generating empirical Hessian (Schlegel '84) for each fragment.
	Taking RFO optimization step.
	Going to follow RFO solution 1.
	Using RFO vector 1.
	Norm of target step-size    0.08118
	Projected energy change by RFO approximation:        -0.0035775903

	Back-transformation to cartesian coordinates...
	Successfully converged to displaced geometry.

	--- Internal Coordinate Step in ANG or DEG, aJ/ANG or AJ/DEG ---
	 ---------------------------------------------------------------------------
	   Coordinate                Previous        Force       Change         New 
	   ----------                --------       ------       ------       ------
	    1 R(1,2)          =      1.548253     0.238390     0.005565     1.553818
	    2 R(1,3)          =      1.548253     0.238389     0.005565     1.553818
	    3 R(1,4)          =      1.670531     0.300671     0.014337     1.684868
	    4 R(1,5)          =      1.670531     0.300672     0.014337     1.684868
	    5 B(2,1,3)        =    111.504060    -0.001222    -3.613582   107.890477
	    6 B(2,1,4)        =    108.739823     0.000288     0.839198   109.579020
	    7 B(2,1,5)        =    108.739770     0.000288     0.839243   109.579013
	    8 B(3,1,4)        =    108.740061     0.000288     0.839004   109.579065
	    9 B(3,1,5)        =    108.740055     0.000288     0.839017   109.579071
	   10 B(4,1,5)        =    110.377858     0.000067     0.209632   110.587490
	 ---------------------------------------------------------------------------
	Successfully symmetrized geometry.

  ==> Convergence Check <==

  Measures of convergence in internal coordinates in au.
  Criteria marked as inactive (o), active & met (*), and active & unmet ( ).
  --------------------------------------------------------------------------------------------- ~
   Step     Total Energy     Delta E     MAX Force     RMS Force      MAX Disp      RMS Disp    ~
  --------------------------------------------------------------------------------------------- ~
    Convergence Criteria             o    2.00e-06 *    1.00e-06 *    6.00e-06 *    4.00e-06 *  ~
  --------------------------------------------------------------------------------------------- ~
      1   -1394.41097407   -1.39e+03 o    3.65e-02      2.16e-02      6.31e-02      2.56e-02    ~
  ---------------------------------------------------------------------------------------------

	Writing optimization data to binary file.
	Structure for next step:
	Cartesian Geometry (in Angstrom)
	   CR    -0.0007859457   0.0523131655  -0.0115139972
	    O     1.0123210768   0.8044589160  -0.9182891692
	    O    -1.0407305508   1.0862453634   0.5021494733
	    F    -0.7848116362  -1.1392357937  -0.9083389902
	    F     0.8113933166  -0.6297115094   1.2976792358
			--------------------------
			 OPTKING Finished Execution 
			--------------------------

    Structure for next step:
    Molecular point group: c1
    Full point group: C1

    Geometry (in Angstrom), charge = 0, multiplicity = 1:

    CR          -0.000866157114     0.057630671008    -0.012684214167
    O            1.012240869296     0.809776424430    -0.919459389757
    O           -1.040810766353     1.091562872990     0.500979258359
    F           -0.784891850751    -1.133918292915    -0.909509210681
    F            0.811313108306    -0.624394006570     1.296509023965

gradient() will perform analytic gradient computation.

*** tstart() called on thinkpad
*** at Sat Jul 10 15:13:59 2021

   => Loading Basis Set <=

    Name: DEF2-QZVP
    Role: ORBITAL
    Keyword: BASIS
    atoms 1   entry CR         line  1332 file /usr/share/psi4/basis/def2-qzvp.gbs 
    atoms 2-3 entry O          line   290 file /usr/share/psi4/basis/def2-qzvp.gbs 
    atoms 4-5 entry F          line   338 file /usr/share/psi4/basis/def2-qzvp.gbs 


         ---------------------------------------------------------
                                   SCF
               by Justin Turney, Rob Parrish, Andy Simmonett
                          and Daniel G. A. Smith
                              RKS Reference
                        4 Threads,   7629 MiB Core
         ---------------------------------------------------------

  ==> Geometry <==

    Molecular point group: c1
    Full point group: C1

    Geometry (in Angstrom), charge = 0, multiplicity = 1:

       Center              X                  Y                   Z               Mass       
    ------------   -----------------  -----------------  -----------------  -----------------
         CR          -0.000866157114     0.057630671008    -0.012684214167    51.940506230000
         O            1.012240869296     0.809776424430    -0.919459389757    15.994914619570
         O           -1.040810766353     1.091562872990     0.500979258359    15.994914619570
         F           -0.784891850751    -1.133918292915    -0.909509210681    18.998403162730
         F            0.811313108306    -0.624394006570     1.296509023965    18.998403162730

  Running in c1 symmetry.

  Rotational constants: A =      0.15081  B =      0.13663  C =      0.12562 [cm^-1]
  Rotational constants: A =   4521.28724  B =   4096.20394  C =   3766.03123 [MHz]
  Nuclear repulsion =  352.982558611391653

  Charge       = 0
  Multiplicity = 1
  Electrons    = 58
  Nalpha       = 29
  Nbeta        = 29

  ==> Algorithm <==

  SCF Algorithm Type is DF.
  DIIS enabled.
  MOM disabled.
  Fractional occupation disabled.
  Guess Type is READ.
  Energy threshold   = 1.00e-08
  Density threshold  = 1.00e-08
  Integral threshold = 0.00e+00

  ==> Primary Basis <==

  Basis Set: DEF2-QZVP
    Blend: DEF2-QZVP
    Number of shells: 94
    Number of basis function: 312
    Number of Cartesian functions: 392
    Spherical Harmonics?: true
    Max angular momentum: 4

  ==> DFT Potential <==

   => Composite Functional: MY PBE <= 

    Perdew, Burke & Ernzerhof
    J. P. Perdew, K. Burke, and M. Ernzerhof, Phys. Rev. Lett. 77, 3865 (1996)
    J. P. Perdew, K. Burke, and M. Ernzerhof, Phys. Rev. Lett. 78, 1396 (1997)

    Deriv               =              1
    GGA                 =           TRUE
    Meta                =          FALSE

    Exchange Hybrid     =          FALSE
    MP2 Hybrid          =          FALSE

   => Exchange Functionals <=

    1.0000     XC_gga_x_pbe

   => Correlation Functionals <=

    1.0000     XC_gga_c_pbe

   => Molecular Quadrature <=

    Radial Scheme          =       TREUTLER
    Pruning Scheme         =           FLAT
    Nuclear Scheme         =       TREUTLER

    BS radius alpha        =              1
    Pruning alpha          =              1
    Radial Points          =             75
    Spherical Points       =            302
    Total Points           =         113250
    Total Blocks           =            923
    Max Points             =            256
    Max Functions          =            292

   => Loading Basis Set <=

    Name: (DEF2-QZVP AUX)
    Role: JKFIT
    Keyword: DF_BASIS_SCF
    atoms 1   entry CR         line  1731 file /usr/share/psi4/basis/def2-qzvp-jkfit.gbs 
    atoms 2-3 entry O          line   323 file /usr/share/psi4/basis/def2-qzvp-jkfit.gbs 
    atoms 4-5 entry F          line   383 file /usr/share/psi4/basis/def2-qzvp-jkfit.gbs 

   => Loading Basis Set <=

    Name: DEF2-QZVP
    Role: ORBITAL
    Keyword: BASIS
    atoms 1   entry CR         line  1332 file /usr/share/psi4/basis/def2-qzvp.gbs 
    atoms 2-3 entry O          line   290 file /usr/share/psi4/basis/def2-qzvp.gbs 
    atoms 4-5 entry F          line   338 file /usr/share/psi4/basis/def2-qzvp.gbs 

  Reading orbitals from file 180, no projection.

  ==> Pre-Iterations <==

   -------------------------------------------------------
    Irrep   Nso     Nmo     Nalpha   Nbeta   Ndocc  Nsocc
   -------------------------------------------------------
     A        312     312       0       0       0       0
   -------------------------------------------------------
    Total     312     312      29      29      29       0
   -------------------------------------------------------

  ==> Integral Setup <==

  DFHelper Memory: AOs need 0.424 GiB; user supplied 4.944 GiB. Using in-core AOs.

  ==> MemDFJK: Density-Fitted J/K Matrices <==

    J tasked:                   Yes
    K tasked:                    No
    wK tasked:                   No
    OpenMP threads:               4
    Memory [MiB]:              5062
    Algorithm:                 Core
    Schwarz Cutoff:           1E-12
    Mask sparsity (%):       6.0137
    Fitting Condition:        1E-10

   => Auxiliary Basis Set <=

  Basis Set: (DEF2-QZVP AUX)
    Blend: DEF2-QZVP-JKFIT
    Number of shells: 158
    Number of basis function: 572
    Number of Cartesian functions: 749
    Spherical Harmonics?: true
    Max angular momentum: 6

  Cached 100.0% of DFT collocation blocks in 0.644 [GiB].

  Minimum eigenvalue in the overlap matrix is 3.5439979827E-04.
  Using Symmetric Orthogonalization.

  SCF Guess: Orbitals guess was supplied from a previous computation.

  ==> Iterations <==

                           Total Energy        Delta E     RMS |[F,P]|

   @DF-RKS iter   0: -1394.38275317518833   -1.39438e+03   4.30382e-04 
   @DF-RKS iter   1: -1394.40934536572172   -2.65922e-02   4.03825e-04 DIIS
   @DF-RKS iter   2: -1394.14478402509008    2.64561e-01   3.07185e-03 DIIS
   @DF-RKS iter   3: -1394.41287647874333   -2.68092e-01   1.76824e-04 DIIS
   @DF-RKS iter   4: -1394.41322975420258   -3.53275e-04   1.31704e-04 DIIS
   @DF-RKS iter   5: -1394.41352711142213   -2.97357e-04   8.75940e-05 DIIS
   @DF-RKS iter   6: -1394.41369161800458   -1.64507e-04   3.18299e-05 DIIS
   @DF-RKS iter   7: -1394.41371875381401   -2.71358e-05   5.03988e-06 DIIS
   @DF-RKS iter   8: -1394.41371892230381   -1.68490e-07   3.89704e-06 DIIS
   @DF-RKS iter   9: -1394.41371946265986   -5.40356e-07   2.93524e-07 DIIS
   @DF-RKS iter  10: -1394.41371946507570   -2.41585e-09   5.46266e-08 DIIS
   @DF-RKS iter  11: -1394.41371946516256   -8.68567e-11   1.18247e-08 DIIS
   @DF-RKS iter  12: -1394.41371946515756    5.00222e-12   8.42039e-09 DIIS
  Energy and wave function converged.


  ==> Post-Iterations <==

    Orbital Energies [Eh]
    ---------------------

    Doubly Occupied:                                                      

       1A   -214.668651     2A    -24.470160     3A    -24.302148  
       4A    -24.302148     5A    -20.836953     6A    -20.836827  
       7A    -20.832969     8A    -18.839267     9A    -18.839267  
      10A     -2.905373    11A     -1.900632    12A     -1.899203  
      13A     -1.896013    14A     -1.107067    15A     -1.101736  
      16A     -0.900307    17A     -0.890146    18A     -0.478397  
      19A     -0.471987    20A     -0.454581    21A     -0.453350  
      22A     -0.450892    23A     -0.416033    24A     -0.410436  
      25A     -0.393427    26A     -0.373580    27A     -0.361183  
      28A     -0.361117    29A     -0.318764  

    Virtual:                                                              

      30A     -0.209346    31A     -0.196019    32A     -0.166048  
      33A     -0.134542    34A     -0.109795    35A     -0.021504  
      36A      0.019633    37A      0.019720    38A      0.020275  
      39A      0.106327    40A      0.112201    41A      0.113497  
      42A      0.114318    43A      0.114407    44A      0.114893  
      45A      0.149220    46A      0.157420    47A      0.157484  
      48A      0.290571    49A      0.303507    50A      0.331917  
      51A      0.337273    52A      0.338813    53A      0.346328  
      54A      0.365091    55A      0.372190    56A      0.382414  
      57A      0.389018    58A      0.410827    59A      0.442651  
      60A      0.461945    61A      0.462871    62A      0.469873  
      63A      0.471548    64A      0.480702    65A      0.499469  
      66A      0.504326    67A      0.520054    68A      0.525520  
      69A      0.862309    70A      0.864384    71A      0.926944  
      72A      0.934090    73A      0.953832    74A      0.978444  
      75A      0.984050    76A      1.068904    77A      1.082918  
      78A      1.084513    79A      1.084926    80A      1.089202  
      81A      1.146152    82A      1.191447    83A      1.216916  
      84A      1.231666    85A      1.280728    86A      1.300713  
      87A      1.307021    88A      1.318618    89A      1.325503  
      90A      1.330481    91A      1.335049    92A      1.335226  
      93A      1.358139    94A      1.424743    95A      1.435900  
      96A      1.458400    97A      1.475864    98A      1.488579  
      99A      1.542729   100A      1.550317   101A      1.585311  
     102A      1.612702   103A      1.623752   104A      1.661377  
     105A      1.677983   106A      1.695133   107A      1.698332  
     108A      1.719878   109A      1.816599   110A      1.857744  
     111A      1.899680   112A      2.080685   113A      2.121954  
     114A      2.137653   115A      2.143443   116A      2.252913  
     117A      2.446821   118A      2.488320   119A      2.740007  
     120A      2.812291   121A      2.858432   122A      2.887111  
     123A      2.901337   124A      2.958095   125A      2.996203  
     126A      3.032883   127A      3.075086   128A      3.093371  
     129A      3.120730   130A      3.133077   131A      3.165472  
     132A      3.256519   133A      3.281339   134A      3.309098  
     135A      3.513207   136A      3.527356   137A      3.602279  
     138A      3.605086   139A      3.665676   140A      3.678868  
     141A      3.711493   142A      3.743061   143A      3.770518  
     144A      3.779649   145A      3.866888   146A      3.879916  
     147A      3.938000   148A      3.970195   149A      3.982063  
     150A      3.982991   151A      4.011628   152A      4.036803  
     153A      4.067960   154A      4.072863   155A      4.095820  
     156A      4.119426   157A      4.172681   158A      4.179457  
     159A      4.226576   160A      4.227405   161A      4.262656  
     162A      4.263353   163A      4.329198   164A      4.335350  
     165A      4.347517   166A      4.563191   167A      4.660420  
     168A      4.670611   169A      4.695529   170A      4.764571  
     171A      4.828938   172A      4.844511   173A      4.891234  
     174A      4.899966   175A      4.929139   176A      4.958425  
     177A      4.965624   178A      4.982726   179A      4.982863  
     180A      5.005046   181A      5.067260   182A      5.168617  
     183A      5.227824   184A      5.232648   185A      5.298228  
     186A      5.308237   187A      5.389227   188A      5.585458  
     189A      5.595985   190A      5.723650   191A      5.842761  
     192A      5.846179   193A      5.987756   194A      6.039969  
     195A      6.047607   196A      6.153724   197A      6.210116  
     198A      6.248796   199A      6.256492   200A      6.281207  
     201A      6.394634   202A      6.496671   203A      6.663981  
     204A      6.952574   205A      6.961478   206A      8.643459  
     207A      8.646050   208A      8.655138   209A      8.655180  
     210A      8.655389   211A      8.657016   212A      8.659910  
     213A      8.674432   214A      8.691938   215A      8.730138  
     216A      8.745278   217A      8.761199   218A      8.922462  
     219A      8.942221   220A      8.965899   221A      9.004049  
     222A      9.016186   223A      9.112092   224A      9.158611  
     225A     10.632305   226A     10.660247   227A     10.692509  
     228A     10.698327   229A     10.720560   230A     10.758585  
     231A     10.760527   232A     10.782818   233A     10.817083  
     234A     10.820171   235A     10.891725   236A     10.901045  
     237A     10.957506   238A     10.989421   239A     11.020620  
     240A     11.169027   241A     11.176977   242A     11.182234  
     243A     11.182310   244A     11.191945   245A     11.193236  
     246A     11.193369   247A     11.193408   248A     11.193597  
     249A     11.196241   250A     11.203079   251A     11.203898  
     252A     11.229991   253A     11.246721   254A     11.251603  
     255A     11.299128   256A     11.371546   257A     11.433211  
     258A     11.453457   259A     11.542526   260A     11.578850  
     261A     11.612390   262A     11.713133   263A     11.737375  
     264A     11.743727   265A     11.789203   266A     11.807196  
     267A     11.851310   268A     12.012209   269A     12.029615  
     270A     12.051618   271A     12.099095   272A     12.361964  
     273A     12.542227   274A     13.405973   275A     13.532327  
     276A     14.307533   277A     14.312452   278A     14.324411  
     279A     14.324601   280A     14.392935   281A     14.394612  
     282A     14.396915   283A     14.442778   284A     14.571914  
     285A     14.574372   286A     14.582324   287A     14.611045  
     288A     14.616618   289A     14.683916   290A     15.246731  
     291A     15.275306   292A     15.549239   293A     15.567289  
     294A     15.586692   295A     15.636698   296A     15.808322  
     297A     15.865510   298A     15.888748   299A     15.909640  
     300A     16.302750   301A     16.310101   302A     29.252196  
     303A     47.058758   304A     47.247107   305A     53.719834  
     306A     53.801798   307A     97.821242   308A    251.552706  
     309A    251.766168   310A    284.094419   311A    284.195287  
     312A    621.695041  

    Final Occupation by Irrep:
              A 
    DOCC [    29 ]

  @DF-RKS Final Energy: -1394.41371946515756

   => Energetics <=

    Nuclear Repulsion Energy =            352.9825586113916529
    One-Electron Energy =               -2623.0011916721036869
    Two-Electron Energy =                 961.5938533105174884
    DFT Exchange-Correlation Energy =     -85.9889397149630383
    Empirical Dispersion Energy =           0.0000000000000000
    VV10 Nonlocal Energy =                  0.0000000000000000
    Total Energy =                      -1394.4137194651575555

Computation Completed


Properties will be evaluated at   0.000000,   0.000000,   0.000000 [a0]

Properties computed using the SCF density matrix

  Nuclear Dipole Moment: [e a0]
     X:    -0.0218      Y:     1.4533      Z:    -0.3199

  Electronic Dipole Moment: [e a0]
     X:     0.0238      Y:    -1.5854      Z:     0.3489

  Dipole Moment: [e a0]
     X:     0.0020      Y:    -0.1321      Z:     0.0291     Total:     0.1353

  Dipole Moment: [D]
     X:     0.0050      Y:    -0.3358      Z:     0.0739     Total:     0.3439


*** tstop() called on thinkpad at Sat Jul 10 15:14:10 2021
Module time:
	user time   =      33.71 seconds =       0.56 minutes
	system time =       0.37 seconds =       0.01 minutes
	total time  =         11 seconds =       0.18 minutes
Total time:
	user time   =     103.35 seconds =       1.72 minutes
	system time =       1.36 seconds =       0.02 minutes
	total time  =         34 seconds =       0.57 minutes

*** tstart() called on thinkpad
*** at Sat Jul 10 15:14:10 2021


         ------------------------------------------------------------
                                   SCF GRAD                          
                          Rob Parrish, Justin Turney,                
                       Andy Simmonett, and Alex Sokolov              
         ------------------------------------------------------------

  ==> Geometry <==

    Molecular point group: c1
    Full point group: C1

    Geometry (in Angstrom), charge = 0, multiplicity = 1:

       Center              X                  Y                   Z               Mass       
    ------------   -----------------  -----------------  -----------------  -----------------
         CR          -0.000866157114     0.057630671008    -0.012684214167    51.940506230000
         O            1.012240869296     0.809776424430    -0.919459389757    15.994914619570
         O           -1.040810766353     1.091562872990     0.500979258359    15.994914619570
         F           -0.784891850751    -1.133918292915    -0.909509210681    18.998403162730
         F            0.811313108306    -0.624394006570     1.296509023965    18.998403162730

  Nuclear repulsion =  352.982558611391653

  ==> Basis Set <==

  Basis Set: DEF2-QZVP
    Blend: DEF2-QZVP
    Number of shells: 94
    Number of basis function: 312
    Number of Cartesian functions: 392
    Spherical Harmonics?: true
    Max angular momentum: 4

  ==> DFJKGrad: Density-Fitted SCF Gradients <==

    Gradient:                    1
    J tasked:                  Yes
    K tasked:                   No
    wK tasked:                  No
    OpenMP threads:              4
    Integrals threads:           4
    Memory [MiB]:             5722
    Schwarz Cutoff:          0E+00
    Fitting Condition:       1E-10

   => Auxiliary Basis Set <=

  Basis Set: (DEF2-QZVP AUX)
    Blend: DEF2-QZVP-JKFIT
    Number of shells: 158
    Number of basis function: 572
    Number of Cartesian functions: 749
    Spherical Harmonics?: true
    Max angular momentum: 6

  ==> DFT Potential <==

   => Composite Functional: MY PBE <= 

    Perdew, Burke & Ernzerhof
    J. P. Perdew, K. Burke, and M. Ernzerhof, Phys. Rev. Lett. 77, 3865 (1996)
    J. P. Perdew, K. Burke, and M. Ernzerhof, Phys. Rev. Lett. 78, 1396 (1997)

    Deriv               =              1
    GGA                 =           TRUE
    Meta                =          FALSE

    Exchange Hybrid     =          FALSE
    MP2 Hybrid          =          FALSE

   => Exchange Functionals <=

    1.0000     XC_gga_x_pbe

   => Correlation Functionals <=

    1.0000     XC_gga_c_pbe

   => Molecular Quadrature <=

    Radial Scheme          =       TREUTLER
    Pruning Scheme         =           FLAT
    Nuclear Scheme         =       TREUTLER

    BS radius alpha        =              1
    Pruning alpha          =              1
    Radial Points          =             75
    Spherical Points       =            302
    Total Points           =         113250
    Total Blocks           =            923
    Max Points             =            256
    Max Functions          =            292


  -Total Gradient:
     Atom            X                  Y                   Z
    ------   -----------------  -----------------  -----------------
       1        0.000112504448    -0.007485475163     0.001647601033
       2       -0.014072457028    -0.009174817160     0.012301500881
       3        0.014406867021    -0.013083555300    -0.007402446721
       4        0.011917763294     0.018693745470     0.013517001456
       5       -0.012363076376     0.010943108916    -0.020040104583


*** tstop() called on thinkpad at Sat Jul 10 15:14:17 2021
Module time:
	user time   =      22.93 seconds =       0.38 minutes
	system time =       0.26 seconds =       0.00 minutes
	total time  =          7 seconds =       0.12 minutes
Total time:
	user time   =     126.28 seconds =       2.10 minutes
	system time =       1.62 seconds =       0.03 minutes
	total time  =         41 seconds =       0.68 minutes

			-----------------------------------------
			 OPTKING 2.0: for geometry optimizations 
			  - R.A. King,  Bethel University        
			-----------------------------------------

	Previous internal coordinate definitions found.
	---Fragment 1 Geometry and Gradient---
	 CR         -0.0016367997        0.1089061846       -0.0239696909
	 O           1.9128580160        1.5302556650       -1.7375264301
	 O          -1.9668472968        2.0627548787        0.9467135928
	 F          -1.4832306360       -2.1427950223       -1.7187233168
	 F           1.5331595767       -1.1799336668        2.4500469745
	             0.0001125044       -0.0074854752        0.0016476010
	            -0.0140724570       -0.0091748172        0.0123015009
	             0.0144068670       -0.0130835553       -0.0074024467
	             0.0119177633        0.0186937455        0.0135170015
	            -0.0123630764        0.0109431089       -0.0200401046

	---Fragment 1 Intrafragment Coordinates---
	 - Coordinate -           - BOHR/RAD -       - ANG/DEG -
	 R(1,2)           =         2.936290	       1.553818
	 R(1,3)           =         2.936291	       1.553818
	 R(1,4)           =         3.183939	       1.684868
	 R(1,5)           =         3.183939	       1.684868
	 B(2,1,3)         =         1.883044	     107.890477
	 B(2,1,4)         =         1.912515	     109.579020
	 B(2,1,5)         =         1.912515	     109.579013
	 B(3,1,4)         =         1.912515	     109.579065
	 B(3,1,5)         =         1.912516	     109.579071
	 B(4,1,5)         =         1.930116	     110.587490

	Current energy   :     -1394.4137194652

	Energy change for the previous step:
		Projected    :        -0.0035775903
		Actual       :        -0.0027453955
	Energy ratio indicates good step: Trust radius increased to 1.000e+00.


	Performing BFGS update.
	Previous computed or guess Hessian on step 1.
	Steps to be used in Hessian update: 1
	Taking RFO optimization step.
	Going to follow RFO solution 1.
	Using RFO vector 1.
	Norm of target step-size    0.07593
	Projected energy change by RFO approximation:        -0.0034144032

	Back-transformation to cartesian coordinates...
	Successfully converged to displaced geometry.

	--- Internal Coordinate Step in ANG or DEG, aJ/ANG or AJ/DEG ---
	 ---------------------------------------------------------------------------
	   Coordinate                Previous        Force       Change         New 
	   ----------                --------       ------       ------       ------
	    1 R(1,2)          =      1.553818     0.171222     0.009972     1.563790
	    2 R(1,3)          =      1.553818     0.171221     0.009972     1.563790
	    3 R(1,4)          =      1.684868     0.213988     0.025504     1.710372
	    4 R(1,5)          =      1.684868     0.213988     0.025504     1.710372
	    5 B(2,1,3)        =    107.890477     0.000219    -0.732072   107.158405
	    6 B(2,1,4)        =    109.579020    -0.000018     0.334533   109.913554
	    7 B(2,1,5)        =    109.579013    -0.000018     0.334568   109.913580
	    8 B(3,1,4)        =    109.579065    -0.000018     0.334373   109.913438
	    9 B(3,1,5)        =    109.579071    -0.000018     0.334374   109.913445
	   10 B(4,1,5)        =    110.587490    -0.000139    -0.602220   109.985270
	 ---------------------------------------------------------------------------
	Successfully symmetrized geometry.

  ==> Convergence Check <==

  Measures of convergence in internal coordinates in au.
  Criteria marked as inactive (o), active & met (*), and active & unmet ( ).
  ---------------------------------------------------------------------------------------------
   Step     Total Energy     Delta E     MAX Force     RMS Force      MAX Disp      RMS Disp   
  ---------------------------------------------------------------------------------------------
    Convergence Criteria             o    2.00e-06 *    1.00e-06 *    6.00e-06 *    4.00e-06 *
  ---------------------------------------------------------------------------------------------
      2   -1394.41371947   -2.75e-03 o    2.60e-02      1.49e-02      4.82e-02      2.40e-02    ~
  ---------------------------------------------------------------------------------------------

	Writing optimization data to binary file.
	Structure for next step:
	Cartesian Geometry (in Angstrom)
	   CR    -0.0009118930   0.0607437076  -0.0133700112
	    O     1.0137521904   0.8262488711  -0.9243578955
	    O    -1.0428237958   1.1085169772   0.4985199738
	    F    -0.7937389781  -1.1550994873  -0.9180930345
	    F     0.8207076799  -0.6397524004   1.3131364353
			--------------------------
			 OPTKING Finished Execution 
			--------------------------

    Structure for next step:
    Molecular point group: c1
    Full point group: C1

    Geometry (in Angstrom), charge = 0, multiplicity = 1:

    CR          -0.000911894983     0.060726044061    -0.013365971543
    O            1.013752192414     0.826231210552    -0.924353859362
    O           -1.042823801813     1.108499317769     0.498524015542
    F           -0.793738983145    -1.155117155672    -0.918088998350
    F            0.820707681137    -0.639770066700     1.313140480219

gradient() will perform analytic gradient computation.

*** tstart() called on thinkpad
*** at Sat Jul 10 15:14:17 2021

   => Loading Basis Set <=

    Name: DEF2-QZVP
    Role: ORBITAL
    Keyword: BASIS
    atoms 1   entry CR         line  1332 file /usr/share/psi4/basis/def2-qzvp.gbs 
    atoms 2-3 entry O          line   290 file /usr/share/psi4/basis/def2-qzvp.gbs 
    atoms 4-5 entry F          line   338 file /usr/share/psi4/basis/def2-qzvp.gbs 


         ---------------------------------------------------------
                                   SCF
               by Justin Turney, Rob Parrish, Andy Simmonett
                          and Daniel G. A. Smith
                              RKS Reference
                        4 Threads,   7629 MiB Core
         ---------------------------------------------------------

  ==> Geometry <==

    Molecular point group: c1
    Full point group: C1

    Geometry (in Angstrom), charge = 0, multiplicity = 1:

       Center              X                  Y                   Z               Mass       
    ------------   -----------------  -----------------  -----------------  -----------------
         CR          -0.000911894983     0.060726044061    -0.013365971543    51.940506230000
         O            1.013752192414     0.826231210552    -0.924353859362    15.994914619570
         O           -1.042823801813     1.108499317769     0.498524015542    15.994914619570
         F           -0.793738983145    -1.155117155672    -0.918088998350    18.998403162730
         F            0.820707681137    -0.639770066700     1.313140480219    18.998403162730

  Running in c1 symmetry.

  Rotational constants: A =      0.14743  B =      0.13462  C =      0.12193 [cm^-1]
  Rotational constants: A =   4419.96830  B =   4035.71699  C =   3655.31803 [MHz]
  Nuclear repulsion =  349.181987579522740

  Charge       = 0
  Multiplicity = 1
  Electrons    = 58
  Nalpha       = 29
  Nbeta        = 29

  ==> Algorithm <==

  SCF Algorithm Type is DF.
  DIIS enabled.
  MOM disabled.
  Fractional occupation disabled.
  Guess Type is READ.
  Energy threshold   = 1.00e-08
  Density threshold  = 1.00e-08
  Integral threshold = 0.00e+00

  ==> Primary Basis <==

  Basis Set: DEF2-QZVP
    Blend: DEF2-QZVP
    Number of shells: 94
    Number of basis function: 312
    Number of Cartesian functions: 392
    Spherical Harmonics?: true
    Max angular momentum: 4

  ==> DFT Potential <==

   => Composite Functional: MY PBE <= 

    Perdew, Burke & Ernzerhof
    J. P. Perdew, K. Burke, and M. Ernzerhof, Phys. Rev. Lett. 77, 3865 (1996)
    J. P. Perdew, K. Burke, and M. Ernzerhof, Phys. Rev. Lett. 78, 1396 (1997)

    Deriv               =              1
    GGA                 =           TRUE
    Meta                =          FALSE

    Exchange Hybrid     =          FALSE
    MP2 Hybrid          =          FALSE

   => Exchange Functionals <=

    1.0000     XC_gga_x_pbe

   => Correlation Functionals <=

    1.0000     XC_gga_c_pbe

   => Molecular Quadrature <=

    Radial Scheme          =       TREUTLER
    Pruning Scheme         =           FLAT
    Nuclear Scheme         =       TREUTLER

    BS radius alpha        =              1
    Pruning alpha          =              1
    Radial Points          =             75
    Spherical Points       =            302
    Total Points           =         113250
    Total Blocks           =            918
    Max Points             =            256
    Max Functions          =            292

   => Loading Basis Set <=

    Name: (DEF2-QZVP AUX)
    Role: JKFIT
    Keyword: DF_BASIS_SCF
    atoms 1   entry CR         line  1731 file /usr/share/psi4/basis/def2-qzvp-jkfit.gbs 
    atoms 2-3 entry O          line   323 file /usr/share/psi4/basis/def2-qzvp-jkfit.gbs 
    atoms 4-5 entry F          line   383 file /usr/share/psi4/basis/def2-qzvp-jkfit.gbs 

   => Loading Basis Set <=

    Name: DEF2-QZVP
    Role: ORBITAL
    Keyword: BASIS
    atoms 1   entry CR         line  1332 file /usr/share/psi4/basis/def2-qzvp.gbs 
    atoms 2-3 entry O          line   290 file /usr/share/psi4/basis/def2-qzvp.gbs 
    atoms 4-5 entry F          line   338 file /usr/share/psi4/basis/def2-qzvp.gbs 

  Reading orbitals from file 180, no projection.

  ==> Pre-Iterations <==

   -------------------------------------------------------
    Irrep   Nso     Nmo     Nalpha   Nbeta   Ndocc  Nsocc
   -------------------------------------------------------
     A        312     312       0       0       0       0
   -------------------------------------------------------
    Total     312     312      29      29      29       0
   -------------------------------------------------------

  ==> Integral Setup <==

  DFHelper Memory: AOs need 0.422 GiB; user supplied 4.948 GiB. Using in-core AOs.

  ==> MemDFJK: Density-Fitted J/K Matrices <==

    J tasked:                   Yes
    K tasked:                    No
    wK tasked:                   No
    OpenMP threads:               4
    Memory [MiB]:              5066
    Algorithm:                 Core
    Schwarz Cutoff:           1E-12
    Mask sparsity (%):       6.4616
    Fitting Condition:        1E-10

   => Auxiliary Basis Set <=

  Basis Set: (DEF2-QZVP AUX)
    Blend: DEF2-QZVP-JKFIT
    Number of shells: 158
    Number of basis function: 572
    Number of Cartesian functions: 749
    Spherical Harmonics?: true
    Max angular momentum: 6

  Cached 100.0% of DFT collocation blocks in 0.640 [GiB].

  Minimum eigenvalue in the overlap matrix is 3.6537982744E-04.
  Using Symmetric Orthogonalization.

  SCF Guess: Orbitals guess was supplied from a previous computation.

  ==> Iterations <==

                           Total Energy        Delta E     RMS |[F,P]|

   @DF-RKS iter   0: -1394.37166604653930   -1.39437e+03   4.61810e-04 
   @DF-RKS iter   1: -1394.40929626668594   -3.76302e-02   5.01005e-04 DIIS
   @DF-RKS iter   2: -1394.00452318618568    4.04773e-01   3.75364e-03 DIIS
   @DF-RKS iter   3: -1394.41468968025629   -4.10166e-01   2.22410e-04 DIIS
   @DF-RKS iter   4: -1394.41420126979892    4.88410e-04   2.42373e-04 DIIS
   @DF-RKS iter   5: -1394.41509435404987   -8.93084e-04   1.72816e-04 DIIS
   @DF-RKS iter   6: -1394.41567210681706   -5.77753e-04   7.98388e-05 DIIS
   @DF-RKS iter   7: -1394.41584261956177   -1.70513e-04   8.87504e-06 DIIS
   @DF-RKS iter   8: -1394.41584255365979    6.59020e-08   7.85116e-06 DIIS
   @DF-RKS iter   9: -1394.41584480618098   -2.25252e-06   3.53389e-07 DIIS
   @DF-RKS iter  10: -1394.41584480942606   -3.24508e-09   1.17746e-07 DIIS
   @DF-RKS iter  11: -1394.41584480972165   -2.95586e-10   5.04731e-08 DIIS
   @DF-RKS iter  12: -1394.41584480977303   -5.13865e-11   2.09138e-08 DIIS
   @DF-RKS iter  13: -1394.41584480979486   -2.18279e-11   1.89897e-09 DIIS
  Energy and wave function converged.


  ==> Post-Iterations <==

    Orbital Energies [Eh]
    ---------------------

    Doubly Occupied:                                                      

       1A   -214.675063     2A    -24.475173     3A    -24.300081  
       4A    -24.300081     5A    -20.842077     6A    -20.842005  
       7A    -20.838183     8A    -18.843497     9A    -18.843496  
      10A     -2.907976    11A     -1.902486    12A     -1.901021  
      13A     -1.897313    14A     -1.102599    15A     -1.097851  
      16A     -0.902518    17A     -0.892802    18A     -0.473790  
      19A     -0.467302    20A     -0.450541    21A     -0.448350  
      22A     -0.448287    23A     -0.416030    24A     -0.407149  
      25A     -0.393063    26A     -0.376129    27A     -0.362838  
      28A     -0.361993    29A     -0.320816  

    Virtual:                                                              

      30A     -0.215158    31A     -0.202144    32A     -0.174054  
      33A     -0.144019    34A     -0.116850    35A     -0.022368  
      36A      0.019229    37A      0.019259    38A      0.019951  
      39A      0.105152    40A      0.112178    41A      0.113252  
      42A      0.114157    43A      0.114236    44A      0.114302  
      45A      0.147963    46A      0.155920    47A      0.157190  
      48A      0.289508    49A      0.301741    50A      0.330498  
      51A      0.335084    52A      0.337910    53A      0.345056  
      54A      0.360704    55A      0.371087    56A      0.376865  
      57A      0.384316    58A      0.406340    59A      0.441616  
      60A      0.460208    61A      0.460880    62A      0.467952  
      63A      0.469368    64A      0.482959    65A      0.502568  
      66A      0.505536    67A      0.514535    68A      0.524253  
      69A      0.857558    70A      0.861061    71A      0.919674  
      72A      0.927298    73A      0.952877    74A      0.972536  
      75A      0.976288    76A      1.062091    77A      1.074473  
      78A      1.079945    79A      1.080987    80A      1.083462  
      81A      1.145858    82A      1.183982    83A      1.209098  
      84A      1.223941    85A      1.276123    86A      1.300736  
      87A      1.303436    88A      1.316893    89A      1.322564  
      90A      1.329407    91A      1.337151    92A      1.337193  
      93A      1.359824    94A      1.414741    95A      1.434336  
      96A      1.440422    97A      1.467032    98A      1.470166  
      99A      1.534386   100A      1.535760   101A      1.570567  
     102A      1.609975   103A      1.620058   104A      1.662722  
     105A      1.671583   106A      1.693559   107A      1.698836  
     108A      1.720306   109A      1.809466   110A      1.849698  
     111A      1.889001   112A      2.042500   113A      2.095142  
     114A      2.108622   115A      2.115700   116A      2.215327  
     117A      2.441544   118A      2.486669   119A      2.708242  
     120A      2.813428   121A      2.863834   122A      2.868538  
     123A      2.895994   124A      2.957167   125A      2.989457  
     126A      3.026190   127A      3.068074   128A      3.084734  
     129A      3.117935   130A      3.131748   131A      3.162784  
     132A      3.253649   133A      3.275471   134A      3.304377  
     135A      3.500126   136A      3.532339   137A      3.597186  
     138A      3.604887   139A      3.674739   140A      3.675558  
     141A      3.704632   142A      3.732684   143A      3.765587  
     144A      3.766908   145A      3.853663   146A      3.878662  
     147A      3.928590   148A      3.970843   149A      3.972137  
     150A      3.973179   151A      4.006571   152A      4.035042  
     153A      4.054670   154A      4.056991   155A      4.086006  
     156A      4.108523   157A      4.157616   158A      4.171002  
     159A      4.207932   160A      4.215100   161A      4.247997  
     162A      4.253020   163A      4.298466   164A      4.316828  
     165A      4.316874   166A      4.576133   167A      4.658258  
     168A      4.659290   169A      4.677562   170A      4.716670  
     171A      4.822389   172A      4.837910   173A      4.876684  
     174A      4.884284   175A      4.922136   176A      4.946688  
     177A      4.952900   178A      4.975338   179A      4.977067  
     180A      4.989815   181A      5.069141   182A      5.155334  
     183A      5.206840   184A      5.232453   185A      5.279193  
     186A      5.284241   187A      5.369144   188A      5.545251  
     189A      5.562739   190A      5.698892   191A      5.810888  
     192A      5.818523   193A      5.958175   194A      6.022315  
     195A      6.025746   196A      6.140760   197A      6.183131  
     198A      6.230710   199A      6.238188   200A      6.266203  
     201A      6.311618   202A      6.440174   203A      6.612951  
     204A      6.929522   205A      6.937073   206A      8.640839  
     207A      8.643285   208A      8.652952   209A      8.653142  
     210A      8.653303   211A      8.654817   212A      8.655948  
     213A      8.669518   214A      8.686577   215A      8.725489  
     216A      8.731879   217A      8.754907   218A      8.904258  
     219A      8.926905   220A      8.937762   221A      8.962374  
     222A      8.990385   223A      9.095115   224A      9.141708  
     225A     10.638108   226A     10.658032   227A     10.689689  
     228A     10.694781   229A     10.710464   230A     10.756836  
     231A     10.763676   232A     10.784437   233A     10.809105  
     234A     10.815141   235A     10.883816   236A     10.894113  
     237A     10.944951   238A     10.981485   239A     11.004067  
     240A     11.173000   241A     11.181969   242A     11.186277  
     243A     11.187026   244A     11.194488   245A     11.197496  
     246A     11.197604   247A     11.197829   248A     11.197954  
     249A     11.199260   250A     11.207629   251A     11.208195  
     252A     11.221856   253A     11.236386   254A     11.240054  
     255A     11.272429   256A     11.360097   257A     11.394089  
     258A     11.461647   259A     11.520122   260A     11.533918  
     261A     11.568860   262A     11.677498   263A     11.710715  
     264A     11.738239   265A     11.781501   266A     11.796226  
     267A     11.842645   268A     12.002785   269A     12.021832  
     270A     12.037504   271A     12.086714   272A     12.337853  
     273A     12.491688   274A     13.381317   275A     13.502986  
     276A     14.310840   277A     14.315161   278A     14.324796  
     279A     14.325407   280A     14.386656   281A     14.387102  
     282A     14.388854   283A     14.434720   284A     14.552322  
     285A     14.558369   286A     14.561787   287A     14.589652  
     288A     14.606818   289A     14.667962   290A     15.182841  
     291A     15.189842   292A     15.547187   293A     15.561697  
     294A     15.582667   295A     15.632024   296A     15.794316  
     297A     15.846888   298A     15.869382   299A     15.893894  
     300A     16.273163   301A     16.275197   302A     29.212471  
     303A     47.047096   304A     47.219281   305A     53.695426  
     306A     53.765013   307A     97.781738   308A    251.537924  
     309A    251.733726   310A    284.064906   311A    284.150030  
     312A    621.625476  

    Final Occupation by Irrep:
              A 
    DOCC [    29 ]

  @DF-RKS Final Energy: -1394.41584480979486

   => Energetics <=

    Nuclear Repulsion Energy =            349.1819875795227404
    One-Electron Energy =               -2615.3910418761265646
    Two-Electron Energy =                 957.7470858759589873
    DFT Exchange-Correlation Energy =     -85.9538763891498263
    Empirical Dispersion Energy =           0.0000000000000000
    VV10 Nonlocal Energy =                  0.0000000000000000
    Total Energy =                      -1394.4158448097948622

Computation Completed


Properties will be evaluated at   0.000000,   0.000000,   0.000000 [a0]

Properties computed using the SCF density matrix

  Nuclear Dipole Moment: [e a0]
     X:    -0.0222      Y:     1.4764      Z:    -0.3250

  Electronic Dipole Moment: [e a0]
     X:     0.0234      Y:    -1.5573      Z:     0.3428

  Dipole Moment: [e a0]
     X:     0.0012      Y:    -0.0809      Z:     0.0178     Total:     0.0828

  Dipole Moment: [D]
     X:     0.0031      Y:    -0.2056      Z:     0.0453     Total:     0.2106


*** tstop() called on thinkpad at Sat Jul 10 15:14:28 2021
Module time:
	user time   =      35.52 seconds =       0.59 minutes
	system time =       0.32 seconds =       0.01 minutes
	total time  =         11 seconds =       0.18 minutes
Total time:
	user time   =     161.86 seconds =       2.70 minutes
	system time =       1.95 seconds =       0.03 minutes
	total time  =         52 seconds =       0.87 minutes

*** tstart() called on thinkpad
*** at Sat Jul 10 15:14:28 2021


         ------------------------------------------------------------
                                   SCF GRAD                          
                          Rob Parrish, Justin Turney,                
                       Andy Simmonett, and Alex Sokolov              
         ------------------------------------------------------------

  ==> Geometry <==

    Molecular point group: c1
    Full point group: C1

    Geometry (in Angstrom), charge = 0, multiplicity = 1:

       Center              X                  Y                   Z               Mass       
    ------------   -----------------  -----------------  -----------------  -----------------
         CR          -0.000911894983     0.060726044061    -0.013365971543    51.940506230000
         O            1.013752192414     0.826231210552    -0.924353859362    15.994914619570
         O           -1.042823801813     1.108499317769     0.498524015542    15.994914619570
         F           -0.793738983145    -1.155117155672    -0.918088998350    18.998403162730
         F            0.820707681137    -0.639770066700     1.313140480219    18.998403162730

  Nuclear repulsion =  349.181987579522740

  ==> Basis Set <==

  Basis Set: DEF2-QZVP
    Blend: DEF2-QZVP
    Number of shells: 94
    Number of basis function: 312
    Number of Cartesian functions: 392
    Spherical Harmonics?: true
    Max angular momentum: 4

  ==> DFJKGrad: Density-Fitted SCF Gradients <==

    Gradient:                    1
    J tasked:                  Yes
    K tasked:                   No
    wK tasked:                  No
    OpenMP threads:              4
    Integrals threads:           4
    Memory [MiB]:             5722
    Schwarz Cutoff:          0E+00
    Fitting Condition:       1E-10

   => Auxiliary Basis Set <=

  Basis Set: (DEF2-QZVP AUX)
    Blend: DEF2-QZVP-JKFIT
    Number of shells: 158
    Number of basis function: 572
    Number of Cartesian functions: 749
    Spherical Harmonics?: true
    Max angular momentum: 6

  ==> DFT Potential <==

   => Composite Functional: MY PBE <= 

    Perdew, Burke & Ernzerhof
    J. P. Perdew, K. Burke, and M. Ernzerhof, Phys. Rev. Lett. 77, 3865 (1996)
    J. P. Perdew, K. Burke, and M. Ernzerhof, Phys. Rev. Lett. 78, 1396 (1997)

    Deriv               =              1
    GGA                 =           TRUE
    Meta                =          FALSE

    Exchange Hybrid     =          FALSE
    MP2 Hybrid          =          FALSE

   => Exchange Functionals <=

    1.0000     XC_gga_x_pbe

   => Correlation Functionals <=

    1.0000     XC_gga_c_pbe

   => Molecular Quadrature <=

    Radial Scheme          =       TREUTLER
    Pruning Scheme         =           FLAT
    Nuclear Scheme         =       TREUTLER

    BS radius alpha        =              1
    Pruning alpha          =              1
    Radial Points          =             75
    Spherical Points       =            302
    Total Points           =         113250
    Total Blocks           =            918
    Max Points             =            256
    Max Functions          =            292


  -Total Gradient:
     Atom            X                  Y                   Z
    ------   -----------------  -----------------  -----------------
       1        0.000056393917    -0.003727840243     0.000820346884
       2       -0.006559073675    -0.001780707184     0.005157194410
       3        0.006639639963    -0.003592291024    -0.003974534345
       4        0.003986672537     0.005783568885     0.004615011990
       5       -0.004121785636     0.003195301510    -0.006591181699


*** tstop() called on thinkpad at Sat Jul 10 15:14:35 2021
Module time:
	user time   =      22.86 seconds =       0.38 minutes
	system time =       0.24 seconds =       0.00 minutes
	total time  =          7 seconds =       0.12 minutes
Total time:
	user time   =     184.72 seconds =       3.08 minutes
	system time =       2.19 seconds =       0.04 minutes
	total time  =         59 seconds =       0.98 minutes

			-----------------------------------------
			 OPTKING 2.0: for geometry optimizations 
			  - R.A. King,  Bethel University        
			-----------------------------------------

	Previous internal coordinate definitions found.
	---Fragment 1 Geometry and Gradient---
	 CR         -0.0017232318        0.1147555920       -0.0252580256
	 O           1.9157140027        1.5613507042       -1.7467756372
	 O          -1.9706513825        2.0947601208        0.9420738563
	 F          -1.4999492932       -2.1828550670       -1.7349367657
	 F           1.5509127464       -1.2089902093        2.4814758719
	             0.0000563939       -0.0037278402        0.0008203469
	            -0.0065590737       -0.0017807072        0.0051571944
	             0.0066396400       -0.0035922910       -0.0039745343
	             0.0039866725        0.0057835689        0.0046150120
	            -0.0041217856        0.0031953015       -0.0065911817

	---Fragment 1 Intrafragment Coordinates---
	 - Coordinate -           - BOHR/RAD -       - ANG/DEG -
	 R(1,2)           =         2.955136	       1.563790
	 R(1,3)           =         2.955136	       1.563790
	 R(1,4)           =         3.232135	       1.710372
	 R(1,5)           =         3.232135	       1.710372
	 B(2,1,3)         =         1.870267	     107.158405
	 B(2,1,4)         =         1.918353	     109.913554
	 B(2,1,5)         =         1.918354	     109.913580
	 B(3,1,4)         =         1.918351	     109.913438
	 B(3,1,5)         =         1.918352	     109.913445
	 B(4,1,5)         =         1.919605	     109.985270

	Current energy   :     -1394.4158448098

	Energy change for the previous step:
		Projected    :        -0.0034144032
		Actual       :        -0.0021253446

	Performing BFGS update.
	Previous computed or guess Hessian on step 1.
	Steps to be used in Hessian update: 2 1
	Taking RFO optimization step.
	Going to follow RFO solution 1.
	Using RFO vector 1.
	Norm of target step-size    0.03653
	Projected energy change by RFO approximation:        -0.0006793056

	Back-transformation to cartesian coordinates...
	Successfully converged to displaced geometry.

	--- Internal Coordinate Step in ANG or DEG, aJ/ANG or AJ/DEG ---
	 ---------------------------------------------------------------------------
	   Coordinate                Previous        Force       Change         New 
	   ----------                --------       ------       ------       ------
	    1 R(1,2)          =      1.563790     0.066874     0.004729     1.568520
	    2 R(1,3)          =      1.563790     0.066873     0.004729     1.568520
	    3 R(1,4)          =      1.710372     0.069327     0.011196     1.721569
	    4 R(1,5)          =      1.710372     0.069328     0.011197     1.721569
	    5 B(2,1,3)        =    107.158405     0.000481     0.878385   108.036790
	    6 B(2,1,4)        =    109.913554    -0.000106    -0.164674   109.748880
	    7 B(2,1,5)        =    109.913580    -0.000106    -0.164686   109.748895
	    8 B(3,1,4)        =    109.913438    -0.000106    -0.164622   109.748816
	    9 B(3,1,5)        =    109.913445    -0.000106    -0.164630   109.748815
	   10 B(4,1,5)        =    109.985270    -0.000048    -0.201389   109.783881
	 ---------------------------------------------------------------------------
	Successfully symmetrized geometry.

  ==> Convergence Check <==

  Measures of convergence in internal coordinates in au.
  Criteria marked as inactive (o), active & met (*), and active & unmet ( ).
  ---------------------------------------------------------------------------------------------
   Step     Total Energy     Delta E     MAX Force     RMS Force      MAX Disp      RMS Disp   
  ---------------------------------------------------------------------------------------------
    Convergence Criteria             o    2.00e-06 *    1.00e-06 *    6.00e-06 *    4.00e-06 *
  ---------------------------------------------------------------------------------------------
      3   -1394.41584481   -2.13e-03 o    8.41e-03      5.67e-03      2.12e-02      1.16e-02    ~
  ---------------------------------------------------------------------------------------------

	Writing optimization data to binary file.
	Structure for next step:
	Cartesian Geometry (in Angstrom)
	   CR    -0.0010049438   0.0668954159  -0.0147236712
	    O     1.0226732443   0.8244445272  -0.9303960990
	    O    -1.0517280614   1.1091598012   0.5048143394
	    F    -0.7979837524  -1.1590059164  -0.9234532899
	    F     0.8250287069  -0.6409244787   1.3196143874
			--------------------------
			 OPTKING Finished Execution 
			--------------------------

    Structure for next step:
    Molecular point group: c1
    Full point group: C1

    Geometry (in Angstrom), charge = 0, multiplicity = 1:

    CR          -0.000979390324     0.065200841910    -0.014350738733
    O            1.022698801721     0.822749956140    -0.930023170144
    O           -1.051702512049     1.107465231296     0.505187273957
    F           -0.797958202136    -1.160700495231    -0.923080361036
    F            0.825054263587    -0.642619055493     1.319987325100

gradient() will perform analytic gradient computation.

*** tstart() called on thinkpad
*** at Sat Jul 10 15:14:35 2021

   => Loading Basis Set <=

    Name: DEF2-QZVP
    Role: ORBITAL
    Keyword: BASIS
    atoms 1   entry CR         line  1332 file /usr/share/psi4/basis/def2-qzvp.gbs 
    atoms 2-3 entry O          line   290 file /usr/share/psi4/basis/def2-qzvp.gbs 
    atoms 4-5 entry F          line   338 file /usr/share/psi4/basis/def2-qzvp.gbs 


         ---------------------------------------------------------
                                   SCF
               by Justin Turney, Rob Parrish, Andy Simmonett
                          and Daniel G. A. Smith
                              RKS Reference
                        4 Threads,   7629 MiB Core
         ---------------------------------------------------------

  ==> Geometry <==

    Molecular point group: c1
    Full point group: C1

    Geometry (in Angstrom), charge = 0, multiplicity = 1:

       Center              X                  Y                   Z               Mass       
    ------------   -----------------  -----------------  -----------------  -----------------
         CR          -0.000979390324     0.065200841910    -0.014350738733    51.940506230000
         O            1.022698801721     0.822749956140    -0.930023170144    15.994914619570
         O           -1.051702512049     1.107465231296     0.505187273957    15.994914619570
         F           -0.797958202136    -1.160700495231    -0.923080361036    18.998403162730
         F            0.825054263587    -0.642619055493     1.319987325100    18.998403162730

  Running in c1 symmetry.

  Rotational constants: A =      0.14607  B =      0.13284  C =      0.12107 [cm^-1]
  Rotational constants: A =   4379.04785  B =   3982.43908  C =   3629.59108 [MHz]
  Nuclear repulsion =  347.504192418848220

  Charge       = 0
  Multiplicity = 1
  Electrons    = 58
  Nalpha       = 29
  Nbeta        = 29

  ==> Algorithm <==

  SCF Algorithm Type is DF.
  DIIS enabled.
  MOM disabled.
  Fractional occupation disabled.
  Guess Type is READ.
  Energy threshold   = 1.00e-08
  Density threshold  = 1.00e-08
  Integral threshold = 0.00e+00

  ==> Primary Basis <==

  Basis Set: DEF2-QZVP
    Blend: DEF2-QZVP
    Number of shells: 94
    Number of basis function: 312
    Number of Cartesian functions: 392
    Spherical Harmonics?: true
    Max angular momentum: 4

  ==> DFT Potential <==

   => Composite Functional: MY PBE <= 

    Perdew, Burke & Ernzerhof
    J. P. Perdew, K. Burke, and M. Ernzerhof, Phys. Rev. Lett. 77, 3865 (1996)
    J. P. Perdew, K. Burke, and M. Ernzerhof, Phys. Rev. Lett. 78, 1396 (1997)

    Deriv               =              1
    GGA                 =           TRUE
    Meta                =          FALSE

    Exchange Hybrid     =          FALSE
[...]
      16A     -0.903698    17A     -0.893671    18A     -0.471288  
      19A     -0.465634    20A     -0.447677    21A     -0.446965  
      22A     -0.446524    23A     -0.416161    24A     -0.405976  
      25A     -0.392628    26A     -0.376838    27A     -0.362893  
      28A     -0.362230    29A     -0.322636  

    Virtual:                                                              

      30A     -0.219314    31A     -0.205023    32A     -0.179576  
      33A     -0.147006    34A     -0.122464    35A     -0.022703  
      36A      0.019027    37A      0.019152    38A      0.019558  
      39A      0.104519    40A      0.111858    41A      0.113268  
      42A      0.113944    43A      0.114192    44A      0.114336  
      45A      0.147710    46A      0.155457    47A      0.155823  
      48A      0.288910    49A      0.301699    50A      0.328078  
      51A      0.334481    52A      0.336338    53A      0.344667  
      54A      0.358156    55A      0.370377    56A      0.374889  
      57A      0.383111    58A      0.402864    59A      0.440219  
      60A      0.459274    61A      0.459390    62A      0.467599  
      63A      0.468092    64A      0.485158    65A      0.499452  
      66A      0.507057    67A      0.514659    68A      0.520618  
      69A      0.853354    70A      0.858105    71A      0.917909  
      72A      0.928814    73A      0.944217    74A      0.973426  
      75A      0.974565    76A      1.059262    77A      1.069581  
      78A      1.077187    79A      1.080152    80A      1.084341  
      81A      1.144521    82A      1.170702    83A      1.205745  
      84A      1.222903    85A      1.276081    86A      1.296491  
      87A      1.301801    88A      1.318406    89A      1.321971  
      90A      1.330186    91A      1.334689    92A      1.337123  
      93A      1.361367    94A      1.408965    95A      1.432090  
      96A      1.434581    97A      1.460758    98A      1.465350  
      99A      1.519521   100A      1.532158   101A      1.565430  
     102A      1.609058   103A      1.617564   104A      1.662688  
     105A      1.665028   106A      1.692210   107A      1.699446  
     108A      1.720220   109A      1.805272   110A      1.841225  
     111A      1.880817   112A      2.029071   113A      2.075208  
     114A      2.096606   115A      2.101702   116A      2.197305  
     117A      2.442507   118A      2.485687   119A      2.692120  
     120A      2.814772   121A      2.855999   122A      2.868087  
     123A      2.897845   124A      2.954380   125A      2.983750  
     126A      3.020770   127A      3.068408   128A      3.081088  
     129A      3.115259   130A      3.136211   131A      3.166191  
     132A      3.251158   133A      3.274004   134A      3.291009  
     135A      3.499487   136A      3.526893   137A      3.590973  
     138A      3.595832   139A      3.667820   140A      3.675876  
     141A      3.707134   142A      3.731589   143A      3.758468  
     144A      3.763812   145A      3.846976   146A      3.873784  
     147A      3.915483   148A      3.964489   149A      3.968970  
     150A      3.976337   151A      4.001969   152A      4.034123  
     153A      4.048681   154A      4.049512   155A      4.079816  
     156A      4.099788   157A      4.149162   158A      4.162234  
     159A      4.197237   160A      4.212344   161A      4.240864  
     162A      4.243362   163A      4.287737   164A      4.303597  
     165A      4.309027   166A      4.564072   167A      4.634301  
     168A      4.662328   169A      4.662957   170A      4.704379  
     171A      4.812112   172A      4.835644   173A      4.865778  
     174A      4.882438   175A      4.919570   176A      4.941014  
     177A      4.948678   178A      4.955561   179A      4.974363  
     180A      4.987191   181A      5.065472   182A      5.151773  
     183A      5.206519   184A      5.243389   185A      5.257336  
     186A      5.281438   187A      5.360529   188A      5.537787  
     189A      5.545391   190A      5.688718   191A      5.795595  
     192A      5.807591   193A      5.944618   194A      6.005573  
     195A      6.010351   196A      6.134729   197A      6.170769  
     198A      6.225560   199A      6.233336   200A      6.253822  
     201A      6.273700   202A      6.394345   203A      6.594042  
     204A      6.915770   205A      6.917966   206A      8.639612  
     207A      8.642167   208A      8.652090   209A      8.652283  
     210A      8.652410   211A      8.653799   212A      8.654381  
     213A      8.666513   214A      8.684455   215A      8.719503  
     216A      8.727902   217A      8.745899   218A      8.892279  
     219A      8.904662   220A      8.931890   221A      8.938141  
     222A      8.974142   223A      9.086275   224A      9.131461  
     225A     10.638564   226A     10.655461   227A     10.687096  
     228A     10.689828   229A     10.706534   230A     10.750730  
     231A     10.765380   232A     10.785437   233A     10.810250  
     234A     10.812882   235A     10.878761   236A     10.890772  
     237A     10.935944   238A     10.970776   239A     10.994495  
     240A     11.174855   241A     11.184030   242A     11.187998  
     243A     11.189117   244A     11.195983   245A     11.199295  
     246A     11.199391   247A     11.199719   248A     11.199803  
     249A     11.200757   250A     11.208329   251A     11.209537  
     252A     11.218586   253A     11.232046   254A     11.236023  
     255A     11.261734   256A     11.354937   257A     11.370591  
     258A     11.473060   259A     11.489273   260A     11.515385  
     261A     11.540378   262A     11.656227   263A     11.702645  
     264A     11.732231   265A     11.778003   266A     11.791560  
     267A     11.839044   268A     11.998958   269A     12.003734  
     270A     12.034346   271A     12.097225   272A     12.322162  
     273A     12.459332   274A     13.368945   275A     13.481733  
     276A     14.312108   277A     14.316193   278A     14.325126  
     279A     14.325830   280A     14.382805   281A     14.383961  
     282A     14.387513   283A     14.430035   284A     14.543235  
     285A     14.547326   286A     14.551010   287A     14.580462  
     288A     14.601975   289A     14.655789   290A     15.145417  
     291A     15.150303   292A     15.545555   293A     15.560050  
     294A     15.581169   295A     15.627593   296A     15.788342  
     297A     15.839206   298A     15.864557   299A     15.880934  
     300A     16.256954   301A     16.257697   302A     29.189735  
     303A     47.036854   304A     47.204001   305A     53.677851  
     306A     53.747687   307A     97.759182   308A    251.525387  
     309A    251.715691   310A    284.043567   311A    284.128858  
     312A    621.585893  

    Final Occupation by Irrep:
              A 
    DOCC [    29 ]

  @DF-RKS Final Energy: -1394.41624359845241

   => Energetics <=

    Nuclear Repulsion Energy =            347.0379449466159372
    One-Electron Energy =               -2611.0928473290987313
    Two-Electron Energy =                 955.5721504415547543
    DFT Exchange-Correlation Energy =     -85.9334916575241010
    Empirical Dispersion Energy =           0.0000000000000000
    VV10 Nonlocal Energy =                  0.0000000000000000
    Total Energy =                      -1394.4162435984524109

Computation Completed


Properties will be evaluated at   0.000000,   0.000000,   0.000000 [a0]

Properties computed using the SCF density matrix

  Nuclear Dipole Moment: [e a0]
     X:    -0.0220      Y:     1.4648      Z:    -0.3224

  Electronic Dipole Moment: [e a0]
     X:     0.0229      Y:    -1.5231      Z:     0.3352

  Dipole Moment: [e a0]
     X:     0.0009      Y:    -0.0583      Z:     0.0128     Total:     0.0597

  Dipole Moment: [D]
     X:     0.0022      Y:    -0.1481      Z:     0.0326     Total:     0.1517


*** tstop() called on thinkpad at Sat Jul 10 15:16:36 2021
Module time:
	user time   =      16.95 seconds =       0.28 minutes
	system time =       0.27 seconds =       0.00 minutes
	total time  =          7 seconds =       0.12 minutes
Total time:
	user time   =     548.92 seconds =       9.15 minutes
	system time =       6.46 seconds =       0.11 minutes
	total time  =        180 seconds =       3.00 minutes

*** tstart() called on thinkpad
*** at Sat Jul 10 15:16:36 2021


         ------------------------------------------------------------
                                   SCF GRAD                          
                          Rob Parrish, Justin Turney,                
                       Andy Simmonett, and Alex Sokolov              
         ------------------------------------------------------------

  ==> Geometry <==

    Molecular point group: c1
    Full point group: C1

    Geometry (in Angstrom), charge = 0, multiplicity = 1:

       Center              X                  Y                   Z               Mass       
    ------------   -----------------  -----------------  -----------------  -----------------
         CR          -0.000966105645     0.064295320948    -0.014151240806    51.940506230000
         O            1.026035476387     0.819856805732    -0.931769028428    15.994914619570
         O           -1.054965766041     1.105478710726     0.508007345163    15.994914619570
         F           -0.801180842019    -1.158421678704    -0.928191145383    18.998403162730
         F            0.828178770467    -0.638313995639     1.323648305111    18.998403162730

  Nuclear repulsion =  347.037944946615937

  ==> Basis Set <==

  Basis Set: DEF2-QZVP
    Blend: DEF2-QZVP
    Number of shells: 94
    Number of basis function: 312
    Number of Cartesian functions: 392
    Spherical Harmonics?: true
    Max angular momentum: 4

  ==> DFJKGrad: Density-Fitted SCF Gradients <==

    Gradient:                    1
    J tasked:                  Yes
    K tasked:                   No
    wK tasked:                  No
    OpenMP threads:              4
    Integrals threads:           4
    Memory [MiB]:             5722
    Schwarz Cutoff:          0E+00
    Fitting Condition:       1E-10

   => Auxiliary Basis Set <=

  Basis Set: (DEF2-QZVP AUX)
    Blend: DEF2-QZVP-JKFIT
    Number of shells: 158
    Number of basis function: 572
    Number of Cartesian functions: 749
    Spherical Harmonics?: true
    Max angular momentum: 6

  ==> DFT Potential <==

   => Composite Functional: MY PBE <= 

    Perdew, Burke & Ernzerhof
    J. P. Perdew, K. Burke, and M. Ernzerhof, Phys. Rev. Lett. 77, 3865 (1996)
    J. P. Perdew, K. Burke, and M. Ernzerhof, Phys. Rev. Lett. 78, 1396 (1997)

    Deriv               =              1
    GGA                 =           TRUE
    Meta                =          FALSE

    Exchange Hybrid     =          FALSE
    MP2 Hybrid          =          FALSE

   => Exchange Functionals <=

    1.0000     XC_gga_x_pbe

   => Correlation Functionals <=

    1.0000     XC_gga_c_pbe

   => Molecular Quadrature <=

    Radial Scheme          =       TREUTLER
    Pruning Scheme         =           FLAT
    Nuclear Scheme         =       TREUTLER

    BS radius alpha        =              1
    Pruning alpha          =              1
    Radial Points          =             75
    Spherical Points       =            302
    Total Points           =         113250
    Total Blocks           =            925
    Max Points             =            256
    Max Functions          =            292


  -Total Gradient:
     Atom            X                  Y                   Z
    ------   -----------------  -----------------  -----------------
       1        0.000000463467    -0.000022150506     0.000004902233
       2        0.000000225839    -0.000022158729     0.000004966027
       3        0.000000348296    -0.000022059541     0.000004855104
       4        0.000000349086    -0.000022062146     0.000004852144
       5        0.000000271554    -0.000021999892     0.000004727971


*** tstop() called on thinkpad at Sat Jul 10 15:16:43 2021
Module time:
	user time   =      23.00 seconds =       0.38 minutes
	system time =       0.25 seconds =       0.00 minutes
	total time  =          7 seconds =       0.12 minutes
Total time:
	user time   =     571.92 seconds =       9.53 minutes
	system time =       6.71 seconds =       0.11 minutes
	total time  =        187 seconds =       3.12 minutes

			-----------------------------------------
			 OPTKING 2.0: for geometry optimizations 
			  - R.A. King,  Bethel University        
			-----------------------------------------

	Previous internal coordinate definitions found.
	---Fragment 1 Geometry and Gradient---
	 CR         -0.0018256751        0.1215005477       -0.0267419695
	 O           1.9389260454        1.5493048249       -1.7607882759
	 O          -1.9935963696        2.0890520008        0.9599947521
	 F          -1.5140123684       -2.1890997105       -1.7540270568
	 F           1.5650310591       -1.2062386338        2.5013327831
	             0.0000004635       -0.0000221505        0.0000049022
	             0.0000002258       -0.0000221587        0.0000049660
	             0.0000003483       -0.0000220595        0.0000048551
	             0.0000003491       -0.0000220621        0.0000048521
	             0.0000002716       -0.0000219999        0.0000047280

	---Fragment 1 Intrafragment Coordinates---
	 - Coordinate -           - BOHR/RAD -       - ANG/DEG -
	 R(1,2)           =         2.968511	       1.570868
	 R(1,3)           =         2.968511	       1.570868
	 R(1,4)           =         3.257161	       1.723615
	 R(1,5)           =         3.257160	       1.723615
	 B(2,1,3)         =         1.890237	     108.302611
	 B(2,1,4)         =         1.912356	     109.569921
	 B(2,1,5)         =         1.912356	     109.569917
	 B(3,1,4)         =         1.912356	     109.569921
	 B(3,1,5)         =         1.912356	     109.569916
	 B(4,1,5)         =         1.923846	     110.228257

	Current energy   :     -1394.4162435985

	Energy change for the previous step:
		Projected    :        -0.0000000001
		Actual       :        -0.0000000009

	Performing BFGS update.
	Previous computed or guess Hessian on step 1.
	Denominators (dg)(dq) or (dq)(dq) are very small.
	 Skipping Hessian update for step 10.
	Denominators (dg)(dq) or (dq)(dq) are very small.
	 Skipping Hessian update for step 9.
	Steps to be used in Hessian update: 8 7
	Taking RFO optimization step.
	Going to follow RFO solution 1.
	Using RFO vector 1.
	Norm of target step-size    0.00000
	Projected energy change by RFO approximation:        -0.0000000000

	Back-transformation to cartesian coordinates...
	Successfully converged to displaced geometry.

	--- Internal Coordinate Step in ANG or DEG, aJ/ANG or AJ/DEG ---
	 ---------------------------------------------------------------------------
	   Coordinate                Previous        Force       Change         New 
	   ----------                --------       ------       ------       ------
	    1 R(1,2)          =      1.570868     0.000001     0.000000     1.570869
	    2 R(1,3)          =      1.570868    -0.000000     0.000000     1.570869
	    3 R(1,4)          =      1.723615     0.000000     0.000000     1.723615
	    4 R(1,5)          =      1.723615     0.000001     0.000000     1.723615
	    5 B(2,1,3)        =    108.302611     0.000000     0.000009   108.302620
	    6 B(2,1,4)        =    109.569921     0.000000     0.000008   109.569929
	    7 B(2,1,5)        =    109.569917     0.000000     0.000015   109.569932
	    8 B(3,1,4)        =    109.569921    -0.000000    -0.000007   109.569914
	    9 B(3,1,5)        =    109.569916    -0.000000    -0.000000   109.569916
	   10 B(4,1,5)        =    110.228257    -0.000000    -0.000024   110.228233
	 ---------------------------------------------------------------------------
	Successfully symmetrized geometry.

  ==> Convergence Check <==

  Measures of convergence in internal coordinates in au.
  Criteria marked as inactive (o), active & met (*), and active & unmet ( ).
  ---------------------------------------------------------------------------------------------
   Step     Total Energy     Delta E     MAX Force     RMS Force      MAX Disp      RMS Disp   
  ---------------------------------------------------------------------------------------------
    Convergence Criteria             o    2.00e-06 *    1.00e-06 *    6.00e-06 *    4.00e-06 *
  ---------------------------------------------------------------------------------------------
     11   -1394.41624360   -9.09e-10 o    1.67e-07 *    8.22e-08 *    4.17e-07 *    2.20e-07 *  ~
  ---------------------------------------------------------------------------------------------


  **** Optimization is complete! (in 11 steps) ****

  ==> Optimization Summary <==

  Measures of convergence in internal coordinates in au.
  --------------------------------------------------------------------------------------------------------------- ~
   Step         Total Energy             Delta E       MAX Force       RMS Force        MAX Disp        RMS Disp  ~
  --------------------------------------------------------------------------------------------------------------- ~
      1   -1394.410974069662  -1394.410974069662      0.03649499      0.02157322      0.06306891      0.02556995  ~
      2   -1394.413719465158     -0.002745395496      0.02597349      0.01491615      0.04819610      0.02401254  ~
      3   -1394.415844809795     -0.002125344637      0.00841489      0.00566988      0.02115835      0.01155639  ~
      4   -1394.416216778291     -0.000371968496      0.00250674      0.00139044      0.00453268      0.00301736  ~
      5   -1394.416238860081     -0.000022081790      0.00106373      0.00052318      0.00279444      0.00109753  ~
      6   -1394.416241753816     -0.000002893735      0.00067743      0.00034106      0.00266801      0.00099229  ~
      7   -1394.416243100382     -0.000001346566      0.00037684      0.00018830      0.00028904      0.00019692  ~
      8   -1394.416243358304     -0.000000257922      0.00024989      0.00012523      0.00048367      0.00027638  ~
      9   -1394.416243568690     -0.000000210386      0.00007538      0.00003725      0.00033300      0.00013648  ~
     10   -1394.416243597543     -0.000000028853      0.00000172      0.00000121      0.00001229      0.00000488  ~
     11   -1394.416243598452     -0.000000000909      0.00000017      0.00000008      0.00000042      0.00000022  ~
  --------------------------------------------------------------------------------------------------------------- ~

	Writing optimization data to binary file.
	Final energy is  -1394.4162435984524
	Final (previous) structure:
	Cartesian Geometry (in Angstrom)
	   CR    -0.0009661056   0.0642953207  -0.0141512408
	    O     1.0260354724   0.8198568025  -0.9317690248
	    O    -1.0549657619   1.1054787064   0.5080073432
	    F    -0.8011808389  -1.1584216742  -0.9281911417
	    F     0.8281787672  -0.6383139931   1.3236482999
	Saving final (previous) structure.
			--------------------------
			 OPTKING Finished Execution 
			--------------------------

    Final optimized geometry and variables:
    Molecular point group: c1
    Full point group: C1

    Geometry (in Angstrom), charge = 0, multiplicity = 1:

    CR          -0.000966105645     0.064295320948    -0.014151240806
    O            1.026035476387     0.819856805732    -0.931769028428
    O           -1.054965766041     1.105478710726     0.508007345163
    F           -0.801180842019    -1.158421678704    -0.928191145383
    F            0.828178770467    -0.638313995639     1.323648305111

	Removing binary optimization data file.
	Cleaning optimization helper files.

    Psi4 stopped on: Saturday, 10 July 2021 03:16PM
    Psi4 wall time for execution: 0:03:07.57

*** Psi4 exiting successfully. Buy a developer a beer!
