      -----------------------------------------------------------      
     |                   =====================                   |     
     |                           x T B                           |     
     |                   =====================                   |     
     |                         S. Grimme                         |     
     |          Mulliken Center for Theoretical Chemistry        |     
     |                    University of Bonn                     |     
      -----------------------------------------------------------      

   * xtb version 6.4.1-1.fc34.fc34 compiled by Fedora project on Fri Jun 11 20:36:47 UTC 2021

   xtb is free software: you can redistribute it and/or modify it under
   the terms of the GNU Lesser General Public License as published by
   the Free Software Foundation, either version 3 of the License, or
   (at your option) any later version.
   
   xtb is distributed in the hope that it will be useful,
   but WITHOUT ANY WARRANTY; without even the implied warranty of
   MERCHANTABILITY or FITNESS FOR A PARTICULAR PURPOSE.  See the
   GNU Lesser General Public License for more details.
   
   Cite this work as:
   * C. Bannwarth, E. Caldeweyher, S. Ehlert, A. Hansen, P. Pracht,
     J. Seibert, S. Spicher, S. Grimme, WIREs Comput. Mol. Sci., 2020, 11,
     e01493. DOI: 10.1002/wcms.1493
   
   for GFN2-xTB:
   * C. Bannwarth, S. Ehlert and S. Grimme., J. Chem. Theory Comput., 2019,
     15, 1652-1671. DOI: 10.1021/acs.jctc.8b01176
   for GFN1-xTB:
   * S. Grimme, C. Bannwarth, P. Shushkov, J. Chem. Theory Comput., 2017,
     13, 1989-2009. DOI: 10.1021/acs.jctc.7b00118
   for GFN0-xTB:
   * P. Pracht, E. Caldeweyher, S. Ehlert, S. Grimme, ChemRxiv, 2019, preprint.
     DOI: 10.26434/chemrxiv.8326202.v1
   for GFN-FF:
   * S. Spicher and S. Grimme, Angew. Chem. Int. Ed., 2020, 59, 15665-15673.
     DOI: 10.1002/anie.202004239
   
   for DFT-D4:
   * E. Caldeweyher, C. Bannwarth and S. Grimme, J. Chem. Phys., 2017,
     147, 034112. DOI: 10.1063/1.4993215
   * E. Caldeweyher, S. Ehlert, A. Hansen, H. Neugebauer, S. Spicher,
     C. Bannwarth and S. Grimme, J. Chem. Phys., 2019, 150, 154122.
     DOI: 10.1063/1.5090222
   * E. Caldeweyher, J.-M. Mewes, S. Ehlert and S. Grimme, Phys. Chem. Chem. Phys.
     2020, 22, 8499-8512. DOI: 10.1039/D0CP00502A
   
   for sTDA-xTB:
   * S. Grimme and C. Bannwarth, J. Chem. Phys., 2016, 145, 054103.
     DOI: 10.1063/1.4959605
   
   in the mass-spec context:
   * V. Asgeirsson, C. Bauer and S. Grimme, Chem. Sci., 2017, 8, 4879.
     DOI: 10.1039/c7sc00601b
   * J. Koopman and S. Grimme, ACS Omega 2019, 4, 12, 15120-15133.
     DOI: 10.1021/acsomega.9b02011
   
   for metadynamics refer to:
   * S. Grimme, J. Chem. Theory Comput., 2019, 155, 2847-2862
     DOI: 10.1021/acs.jctc.9b00143
   
   for SPH calculations refer to:
   * S. Spicher and S. Grimme, J. Chem. Theory Comput., 2021, 17, 1701-1714
     DOI: 10.1021/acs.jctc.0c01306
   
   with help from (in alphabetical order)
   P. Atkinson, C. Bannwarth, F. Bohle, G. Brandenburg, E. Caldeweyher
   M. Checinski, S. Dohm, S. Ehlert, S. Ehrlich, I. Gerasimov, J. Koopman
   C. Lavigne, S. Lehtola, F. März, M. Müller, F. Musil, H. Neugebauer
   J. Pisarek, C. Plett, P. Pracht, J. Seibert, P. Shushkov, S. Spicher
   M. Stahn, M. Steiner, T. Strunk, J. Stückrath, T. Rose, and J. Unsleber
   
 * started run on 2021/06/30 at 12:52:07.820     

           -------------------------------------------------
          |                Calculation Setup                |
           -------------------------------------------------

          program call               : xtb cro2f2.xyz --opt --gfn 1
          hostname                   : thinkpad
          coordinate file            : cro2f2.xyz
          omp threads                :                     4
          number of atoms            :                     5
          number of electrons        :                    32
          charge                     :                     0
          spin                       :                   0.0
          first test random number   :      0.42929948028333

   ID    Z sym.   atoms
    1   24 Cr     1
    2    8 O      2, 3
    3    9 F      4, 5

           -------------------------------------------------
          |                 G F N 1 - x T B                 |
           -------------------------------------------------

        Reference                      10.1021/acs.jctc.7b00118
      * Hamiltonian:
        H0-scaling (s, p, d)           1.850000    2.250000    2.000000
        zeta-weighting                 0.000000
      * Dispersion:
        s8                             2.400000
        a1                             0.630000
        a2                             5.000000
        s9                             0.000000
      * Repulsion:
        kExp                           1.500000
        rExp                           1.000000
      * Coulomb:
        alpha                          2.000000
        third order                    atomic
        anisotropic                    false
      * Halogen bond correction:
        rad-scale                      1.300000
        damping                        0.440000

q/qsh data taken from xtbrestart

          ...................................................
          :                      SETUP                      :
          :.................................................:
          :  # basis functions                  26          :
          :  # atomic orbitals                  25          :
          :  # shells                           11          :
          :  # electrons                        32          :
          :  # halogen bonds                     0          :
          :  max. iterations                   250          :
          :  Hamiltonian                  GFN1-xTB          :
          :  restarted?                       true          :
          :  GBSA solvation                  false          :
          :  PC potential                    false          :
          :  electronic temp.          300.0000000     K    :
          :  accuracy                    1.0000000          :
          :  -> integral cutoff          0.2500000E+02      :
          :  -> integral neglect         0.1000000E-07      :
          :  -> SCF convergence          0.1000000E-05 Eh   :
          :  -> wf. convergence          0.2000000E-04 e    :
          :  Broyden damping             0.4000000          :
          ...................................................

 iter      E             dE          RMSdq      gap      omega  full diag
   1    -13.5562235 -0.135562E+02  0.599E+01    0.09       0.0  T
   2     -7.7329794  0.582324E+01  0.555E+01   30.14       1.0  T
   3    -10.9754467 -0.324247E+01  0.417E+01   13.13       1.0  T
   4    -50.7451013 -0.397697E+02  0.672E+01    1.68       1.0  T
   5    -49.8132886  0.931813E+00  0.728E+01    2.17       1.0  T
   6    -49.8199237 -0.663506E-02  0.720E+01    2.11       1.0  T
   7    -50.8760909 -0.105617E+01  0.567E+01    0.06       1.0  T
   8    -17.7986278  0.330775E+02  0.177E+01    5.93       1.0  T
   9    -19.9274733 -0.212885E+01  0.631E+00    1.61       1.0  T
  10    -20.8021756 -0.874702E+00  0.982E+00    1.30       1.0  T
  11    -20.5130068  0.289169E+00  0.111E+01    1.30       1.0  T
  12    -21.4718975 -0.958891E+00  0.112E+01    1.13       1.0  T
  13    -25.2747034 -0.380281E+01  0.159E+01    0.94       1.0  T
  14    -50.8117974 -0.255371E+02  0.250E+01    0.56       1.0  T
  15    -55.5510620 -0.473926E+01  0.139E+01    0.54       1.0  T
  16    -55.7528378 -0.201776E+00  0.119E+01    1.18       1.0  T
  17    -55.4414234  0.311414E+00  0.143E+01    0.32       1.0  T
  18    -53.1821949  0.225923E+01  0.180E+01    0.29       1.0  T
  19    -55.7740925 -0.259190E+01  0.121E+01    1.23       1.0  T
  20    -55.8096409 -0.355484E-01  0.117E+01    1.45       1.0  T
  21    -55.8151530 -0.551215E-02  0.117E+01    1.50       1.0  T
  22    -55.8146899  0.463108E-03  0.117E+01    1.49       1.0  T
  23    -55.8290186 -0.143286E-01  0.108E+01    1.76       1.0  T
  24    -55.8161798  0.128387E-01  0.856E+00    2.24       1.0  T
  25    -55.8488917 -0.327118E-01  0.448E+00    2.40       1.0  T
  26    -55.8478396  0.105203E-02  0.175E+00    2.19       1.0  T
  27    -55.8292069  0.186327E-01  0.164E+00    2.09       1.0  T
  28    -55.8432662 -0.140593E-01  0.129E+00    2.15       1.0  T
  29    -55.8572593 -0.139931E-01  0.133E+00    2.38       1.0  T
  30    -55.8470697  0.101896E-01  0.185E+00    2.46       1.0  T
  31    -55.8431821  0.388767E-02  0.212E+00    2.46       1.0  T
  32    -55.8438825 -0.700467E-03  0.222E+00    2.42       1.0  T
  33    -55.8457280 -0.184549E-02  0.223E+00    2.40       1.0  T
  34    -55.8459058 -0.177812E-03  0.223E+00    2.40       1.0  T
  35    -55.8456375  0.268310E-03  0.230E+00    2.39       1.0  T
  36    -55.8561468 -0.105093E-01  0.182E+00    2.29       1.0  T
  37    -55.8578176 -0.167076E-02  0.943E-01    2.30       1.0  T
  38    -55.8579780 -0.160426E-03  0.440E-01    2.36       1.0  T
  39    -55.8583612 -0.383144E-03  0.203E-01    2.41       1.0  T
  40    -55.8585777 -0.216519E-03  0.908E-02    2.44       1.0  T
  41    -55.8586529 -0.752658E-04  0.374E-02    2.45       1.2  T
  42    -55.8586717 -0.187194E-04  0.126E-02    2.46       3.6  T
  43    -55.8586748 -0.308938E-05  0.902E-04    2.47      49.6  T
  44    -55.8586748 -0.245553E-07  0.450E-04    2.47      99.3  T
  45    -55.8586748 -0.165372E-08  0.141E-04    2.47     317.0  T
  46    -55.8586748 -0.112692E-10  0.248E-05    2.47    1806.8  T

   *** convergence criteria satisfied after 46 iterations ***

         #    Occupation            Energy/Eh            Energy/eV
      -------------------------------------------------------------
         1        2.0000          -14.0181930            -381.4544
       ...           ...                  ...                  ...
        10        2.0000           -1.6281978             -44.3055
        11        2.0000           -1.6265544             -44.2608
        12        2.0000           -1.5207936             -41.3829
        13        2.0000           -1.5067318             -41.0003
        14        2.0000           -1.4888205             -40.5129
        15        2.0000           -1.3966707             -38.0053
        16        2.0000           -1.3065109             -35.5520 (HOMO)
        17                         -1.2158275             -33.0843 (LUMO)
        18                         -1.0088084             -27.4511
        19                         -0.9462528             -25.7488
        20                         -0.9430665             -25.6621
        21                         -0.9268159             -25.2199
       ...                                ...                  ...
        25                          0.6416461              17.4601
      -------------------------------------------------------------
                  HL-Gap            0.0906834 Eh            2.4676 eV
             Fermi-level           -1.2611692 Eh          -34.3182 eV

 SCC (total)                   0 d,  0 h,  0 min,  0.024 sec
 SCC setup                      ...        0 min,  0.000 sec (  0.508%)
 Dispersion                     ...        0 min,  0.000 sec (  0.128%)
 classical contributions        ...        0 min,  0.000 sec (  0.075%)
 integral evaluation            ...        0 min,  0.000 sec (  1.830%)
 iterations                     ...        0 min,  0.022 sec ( 94.370%)
 molecular gradient             ...        0 min,  0.001 sec (  2.753%)
 printout                       ...        0 min,  0.000 sec (  0.307%)

         :::::::::::::::::::::::::::::::::::::::::::::::::::::
         ::                     SUMMARY                     ::
         :::::::::::::::::::::::::::::::::::::::::::::::::::::
         :: total energy             -55.777253323540 Eh    ::
         :: gradient norm              9.249258705396 Eh/a0 ::
         :: HOMO-LUMO gap              2.467621923811 eV    ::
         ::.................................................::
         :: SCC energy               -55.858674783309 Eh    ::
         :: -> electrostatic         -45.062086401922 Eh    ::
         :: repulsion energy           0.082592073726 Eh    ::
         :: dispersion energy         -0.001170613957 Eh    ::
         :: halogen bond corr.         0.000000000000 Eh    ::
         :: add. restraining           0.000000000000 Eh    ::
         :: total charge               0.000000000107 e     ::
         :::::::::::::::::::::::::::::::::::::::::::::::::::::

      ----------------------------------------------------------- 
     |                   =====================                   |
     |                        A N C O P T                        |
     |                   =====================                   |
     |               Approximate Normal Coordinate               |
     |                Rational Function Optimizer                |
      ----------------------------------------------------------- 

          ...................................................
          :                      SETUP                      :
          :.................................................:
          :   optimization level            normal          :
          :   max. optcycles                   200          :
          :   ANC micro-cycles                  20          :
          :   degrees of freedom                 9          :
          :.................................................:
          :   RF solver                   davidson          :
          :   write xtbopt.log                true          :
          :   linear?                        false          :
          :   energy convergence         0.5000000E-05 Eh   :
          :   grad. convergence          0.1000000E-02 Eh/α :
          :   maximium RF displ.         1.0000000          :
          :   Hlow (freq-cutoff)         0.1000000E-01      :
          :   Hmax (freq-cutoff)         5.0000000          :
          :   S6 in model hess.         20.0000000          :
          ...................................................

generating ANC from model Hessian ...
Using Lindh-Hessian (1995)
 Shifting diagonal of input Hessian by    0.0000000000000000     
 Lowest  eigenvalues of input Hessian
    0.000000    0.000000    0.000000    0.000000    0.000000    0.000000
    0.119065    0.157855    0.199993    0.204526    0.271059    0.749672
    1.656228    2.014792    2.360906
 Highest eigenvalues
    0.204526    0.271059    0.749672    1.656228    2.014792    2.360906


........................................................................
.............................. CYCLE    1 ..............................
........................................................................
   1    -55.8586748 -0.558587E+02  0.366E-06    2.47       0.0  T
   2    -55.8586748  0.852651E-12  0.824E-06    2.47    5430.2  T
   3    -55.8586748 -0.104450E-11  0.233E-06    2.47   19169.7  T
     SCC iter.                  ...        0 min,  0.001 sec
     gradient                   ...        0 min,  0.001 sec
 * total energy  :   -55.7772533 Eh     change       -0.1421085E-10 Eh
   gradient norm :     9.2492589 Eh/α   predicted     0.0000000E+00 (-100.00%)
   displ. norm   :     0.9351018 α      lambda       -0.8632153E+01
   maximum displ.:     0.7311128 α      in ANC's #6, #8, #5, ...

........................................................................
.............................. CYCLE    2 ..............................
........................................................................
   1    -62.4367883 -0.624368E+02  0.144E+01    3.54       0.0  T
   2    -63.6168625 -0.118007E+01  0.129E+01    8.94       1.0  T
   3    -66.3730676 -0.275621E+01  0.336E+00    1.46       1.0  T
   4    -66.5794265 -0.206359E+00  0.199E+00    0.25       1.0  T
   5    -65.3003270  0.127910E+01  0.884E+00    6.42       1.0  T
   6    -66.5802357 -0.127991E+01  0.610E-02    0.24       1.0  T
   7    -66.5803073 -0.716626E-04  0.199E-02    0.26       2.2  T
   8    -66.5803113 -0.398946E-05  0.847E-03    0.25       5.3  T
   9    -66.5803116 -0.259048E-06  0.656E-03    0.25       6.8  T
  10    -66.5803118 -0.177721E-06  0.151E-03    0.25      29.6  T
  11    -66.5803118 -0.185671E-07  0.423E-04    0.25     105.8  T
  12    -66.5803118 -0.164148E-08  0.307E-04    0.25     145.8  T
  13    -66.5803118 -0.112594E-08  0.106E-05    0.25    4237.5  T
  14    -66.5803118 -0.122213E-11  0.595E-08    0.25  100000.0  T
     SCC iter.                  ...        0 min,  0.006 sec
     gradient                   ...        0 min,  0.001 sec
 * total energy  :   -65.5038201 Eh     change       -0.9726567E+01 Eh
   gradient norm :    11.2244444 Eh/α   predicted    -0.8090120E+01 ( -16.82%)
   displ. norm   :     0.9489782 α      lambda       -0.1063795E+02
   maximum displ.:     0.7682579 α      in ANC's #6, #8, #5, ...

........................................................................
.............................. CYCLE    3 ..............................
........................................................................
   1    -85.0749088 -0.850749E+02  0.120E+01    5.05       0.0  T
   2    -86.2828339 -0.120793E+01  0.450E+00    9.74       1.0  T
   3    -86.2852443 -0.241048E-02  0.210E+00    9.62       1.0  T
   4    -86.2857279 -0.483600E-03  0.731E-02    9.51       1.0  T
   5    -86.2857487 -0.208004E-04  0.276E-02    9.56       1.6  T
   6    -86.2857457  0.309291E-05  0.203E-02    9.58       2.2  T
   7    -86.2857490 -0.337942E-05  0.124E-04    9.56     360.8  T
   8    -86.2857490 -0.142663E-09  0.100E-05    9.56    4450.3  T
   9    -86.2857490 -0.952127E-12  0.446E-06    9.56   10037.7  T
     SCC iter.                  ...        0 min,  0.004 sec
     gradient                   ...        0 min,  0.001 sec
 * total energy  :   -75.4264164 Eh     change       -0.9922596E+01 Eh
   gradient norm :     9.6643146 Eh/α   predicted    -0.1010903E+02 (   1.88%)
   displ. norm   :     0.9959780 α      lambda       -0.9620928E+01
   maximum displ.:     0.7520462 α      in ANC's #6, #8, #5, ...

........................................................................
.............................. CYCLE    4 ..............................
........................................................................
   1    -89.3605671 -0.893606E+02  0.704E+00    3.13       0.0  T
   2    -89.7725678 -0.412001E+00  0.212E+00    3.23       1.0  T
   3    -89.8027672 -0.301994E-01  0.178E+00    2.92       1.0  T
   4    -89.7935527  0.921445E-02  0.113E+00    3.25       1.0  T
   5    -89.8146843 -0.211316E-01  0.365E-02    3.04       1.2  T
   6    -89.8145893  0.950531E-04  0.805E-02    3.03       1.0  T
   7    -89.8146848 -0.954667E-04  0.107E-02    3.04       4.2  T
   8    -89.8146862 -0.140881E-05  0.312E-03    3.04      14.3  T
   9    -89.8146863 -0.168263E-06  0.815E-04    3.04      54.9  T
  10    -89.8146863 -0.755043E-08  0.202E-04    3.04     221.4  T
  11    -89.8146863 -0.262489E-09  0.319E-06    3.04   14000.7  T
  12    -89.8146863 -0.213163E-12  0.377E-07    3.04  100000.0  T
     SCC iter.                  ...        0 min,  0.005 sec
     gradient                   ...        0 min,  0.001 sec
 * total energy  :   -69.6488594 Eh     change        0.5777557E+01 Eh
   gradient norm :    32.8534473 Eh/α   predicted    -0.9582311E+01 (-265.85%)
   displ. norm   :     0.5199442 α      lambda       -0.1608391E+02
   maximum displ.:     0.5111167 α      in ANC's #8, #5, #6, ...

........................................................................
.............................. CYCLE    5 ..............................
........................................................................
   1    -93.0889040 -0.930889E+02  0.123E+01    8.66       0.0  T
   2    -96.0886174 -0.299971E+01  0.357E+00    7.85       1.0  T
   3    -96.1246467 -0.360293E-01  0.211E+00    7.97       1.0  T
   4    -96.1393708 -0.147241E-01  0.670E-01    1.00       1.0  T
   5    -96.1390768  0.294009E-03  0.737E-01    4.81       1.0  T
   6    -96.1419269 -0.285011E-02  0.162E-02    2.78       2.8  T
   7    -96.1419266  0.311415E-06  0.685E-03    2.75       6.5  T
   8    -96.1419270 -0.398655E-06  0.161E-03    2.77      27.8  T
   9    -96.1419270 -0.543807E-09  0.490E-05    2.77     912.3  T
  10    -96.1419270 -0.585487E-11  0.305E-05    2.77    1464.5  T
     SCC iter.                  ...        0 min,  0.004 sec
     gradient                   ...        0 min,  0.001 sec
 * total energy  :   -82.6908601 Eh     change       -0.1304200E+02 Eh
   gradient norm :    21.1930126 Eh/α   predicted    -0.1021604E+02 ( -21.67%)
   displ. norm   :     0.9382481 α      lambda       -0.1818338E+02
   maximum displ.:     0.7623453 α      in ANC's #8, #6, #5, ...

........................................................................
.............................. CYCLE    6 ..............................
........................................................................
   1    -97.8781221 -0.978781E+02  0.255E+01   26.23       0.0  T
   2   -106.0156390 -0.813752E+01  0.373E+00    1.54       1.0  T
   3   -105.7450393  0.270600E+00  0.441E+00    1.27       1.0  T
   4   -105.8085290 -0.634897E-01  0.380E+00    0.36       1.0  T
   5   -104.8901529  0.918376E+00  0.787E+00   10.29       1.0  T
   6   -105.5532758 -0.663123E+00  0.533E+00    5.67       1.0  T
   7   -106.0092939 -0.456018E+00  0.256E+00    2.03       1.0  T
   8   -106.0971486 -0.878547E-01  0.147E+00    0.90       1.0  T
   9   -106.1008562 -0.370760E-02  0.141E+00    0.83       1.0  T
  10   -106.1033766 -0.252042E-02  0.137E+00    0.78       1.0  T
  11   -106.1164469 -0.130703E-01  0.854E-01    0.48       1.0  T
  12   -105.8897101  0.226737E+00  0.324E+00    0.10       1.0  T
  13   -106.0023051 -0.112595E+00  0.266E+00    2.10       1.0  T
  14   -106.1205871 -0.118282E+00  0.699E-01    0.36       1.0  T
  15   -106.0223254  0.982616E-01  0.215E+00    0.02       1.0  T
  16   -106.0951870 -0.728615E-01  0.142E+00    0.94       1.0  T
  17   -106.1210197 -0.258327E-01  0.645E-01    0.35       1.0  T
  18   -106.1284514 -0.743170E-02  0.271E-01    0.11       1.0  T
  19   -105.9635123  0.164939E+00  0.269E+00    0.06       1.0  T
  20   -106.0634954 -0.999832E-01  0.188E+00    1.41       1.0  T
  21   -106.1179110 -0.544156E-01  0.775E-01    0.44       1.0  T
  22   -106.1159691  0.194188E-02  0.757E-01    0.05       1.0  T
  23   -106.1193766 -0.340748E-02  0.740E-01    0.40       1.0  T
  24   -106.1251649 -0.578822E-02  0.412E-01    0.08       1.0  T
  25   -106.1233515  0.181339E-02  0.527E-01    0.27       1.0  T
  26   -106.1099814  0.133700E-01  0.908E-01    0.04       1.0  T
  27   -106.1183536 -0.837217E-02  0.748E-01    0.43       1.0  T
  28   -106.1292151 -0.108614E-01  0.680E-03    0.12       6.6  T
  29   -106.1292079  0.712296E-05  0.178E-02    0.12       2.5  T
  30   -106.1291607  0.472398E-04  0.507E-02    0.13       1.0  T
  31   -106.1291003  0.604067E-04  0.717E-02    0.11       1.0  T
  32   -106.1289162  0.184123E-03  0.115E-01    0.14       1.0  T
  33   -106.1279708  0.945400E-03  0.233E-01    0.09       1.0  T
  34   -106.1270053  0.965509E-03  0.316E-01    0.18       1.0  T
  35   -106.1203727  0.663258E-02  0.618E-01    0.06       1.0  T
  36   -106.1227301 -0.235739E-02  0.561E-01    0.29       1.0  T
  37   -106.1262492 -0.351911E-02  0.357E-01    0.08       1.0  T
  38   -106.1255174  0.731822E-03  0.414E-01    0.22       1.0  T
  39   -106.1213426  0.417475E-02  0.583E-01    0.06       1.0  T
  40   -106.1232809 -0.193832E-02  0.534E-01    0.28       1.0  T
  41   -106.1261795 -0.289861E-02  0.361E-01    0.08       1.0  T
  42   -106.1256320  0.547580E-03  0.407E-01    0.21       1.0  T
  43   -106.1226806  0.295131E-02  0.531E-01    0.07       1.0  T
  44   -106.1239778 -0.129715E-02  0.498E-01    0.26       1.0  T
  45   -106.1257398 -0.176203E-02  0.387E-01    0.08       1.0  T
  46   -106.1255120  0.227795E-03  0.414E-01    0.22       1.0  T
  47   -106.1239244  0.158767E-02  0.478E-01    0.07       1.0  T
  48   -106.1246718 -0.747468E-03  0.461E-01    0.24       1.0  T
  49   -106.1254391 -0.767302E-03  0.403E-01    0.08       1.0  T
  50   -106.1254933 -0.541303E-04  0.415E-01    0.22       1.0  T
  51   -106.1248673  0.625938E-03  0.433E-01    0.08       1.0  T
  52   -106.1252742 -0.406877E-03  0.428E-01    0.22       1.0  T
  53   -106.1254609 -0.186659E-03  0.402E-01    0.08       1.0  T
  54   -106.1256538 -0.192980E-03  0.405E-01    0.21       1.0  T
  55   -106.1254847  0.169089E-03  0.401E-01    0.08       1.0  T
  56   -106.1257400 -0.255253E-03  0.400E-01    0.21       1.0  T
  57   -106.1257394  0.607952E-06  0.387E-01    0.08       1.0  T
  58   -106.1259475 -0.208108E-03  0.387E-01    0.21       1.0  T
  59   -106.1259138  0.337014E-04  0.378E-01    0.08       1.0  T
  60   -106.1261125 -0.198651E-03  0.377E-01    0.20       1.0  T
  61   -106.1261036  0.881439E-05  0.367E-01    0.08       1.0  T
  62   -106.1262853 -0.181623E-03  0.366E-01    0.20       1.0  T
  63   -106.1262878 -0.257499E-05  0.356E-01    0.08       1.0  T
  64   -106.1264550 -0.167123E-03  0.355E-01    0.19       1.0  T
  65   -106.1264690 -0.140162E-04  0.345E-01    0.08       1.0  T
  66   -106.1266227 -0.153757E-03  0.343E-01    0.19       1.0  T
  67   -106.1266474 -0.246268E-04  0.333E-01    0.08       1.0  T
  68   -106.1267888 -0.141413E-03  0.332E-01    0.19       1.0  T
  69   -106.1268229 -0.341058E-04  0.322E-01    0.09       1.0  T
  70   -106.1269530 -0.130079E-03  0.320E-01    0.18       1.0  T
  71   -106.1269955 -0.425590E-04  0.310E-01    0.09       1.0  T
  72   -106.1271152 -0.119687E-03  0.308E-01    0.18       1.0  T
  73   -106.1271652 -0.499874E-04  0.298E-01    0.09       1.0  T
  74   -106.1272754 -0.110176E-03  0.296E-01    0.18       1.0  T
  75   -106.1273318 -0.563861E-04  0.286E-01    0.09       1.0  T
  76   -106.1274332 -0.101488E-03  0.283E-01    0.17       1.0  T
  77   -106.1274950 -0.617447E-04  0.273E-01    0.09       1.0  T
  78   -106.1275885 -0.935609E-04  0.270E-01    0.17       1.0  T
  79   -106.1276546 -0.660459E-04  0.260E-01    0.09       1.0  T
  80   -106.1277409 -0.863322E-04  0.257E-01    0.17       1.0  T
  81   -106.1278102 -0.692660E-04  0.247E-01    0.09       1.0  T
  82   -106.1278899 -0.797323E-04  0.244E-01    0.16       1.0  T
  83   -106.1279613 -0.713760E-04  0.233E-01    0.09       1.0  T
  84   -106.1280350 -0.736851E-04  0.230E-01    0.16       1.0  T
  85   -106.1281073 -0.723446E-04  0.219E-01    0.09       1.0  T
  86   -106.1281754 -0.681057E-04  0.215E-01    0.16       1.0  T
  87   -106.1282476 -0.721422E-04  0.205E-01    0.10       1.0  T
  88   -106.1283105 -0.628992E-04  0.201E-01    0.15       1.0  T
  89   -106.1283812 -0.707472E-04  0.190E-01    0.10       1.0  T
  90   -106.1284392 -0.579618E-04  0.186E-01    0.15       1.0  T
  91   -106.1285073 -0.681554E-04  0.175E-01    0.10       1.0  T
  92   -106.1285605 -0.531830E-04  0.171E-01    0.15       1.0  T
  93   -106.1286249 -0.643925E-04  0.160E-01    0.10       1.0  T
  94   -106.1286734 -0.484530E-04  0.155E-01    0.14       1.0  T
  95   -106.1287329 -0.595289E-04  0.145E-01    0.10       1.0  T
  96   -106.1287766 -0.436736E-04  0.139E-01    0.14       1.0  T
  97   -106.1288303 -0.536954E-04  0.130E-01    0.10       1.0  T
  98   -106.1288690 -0.387743E-04  0.124E-01    0.14       1.0  T
  99   -106.1289161 -0.470956E-04  0.114E-01    0.11       1.0  T
 100   -106.1289499 -0.337319E-04  0.108E-01    0.14       1.0  T
 101   -106.1289899 -0.400100E-04  0.994E-02    0.11       1.0  T
 102   -106.1290185 -0.285874E-04  0.934E-02    0.13       1.0  T
 103   -106.1290512 -0.327834E-04  0.849E-02    0.11       1.0  T
 104   -106.1290747 -0.234550E-04  0.790E-02    0.13       1.0  T
 105   -106.1291005 -0.257942E-04  0.712E-02    0.11       1.0  T
 106   -106.1291190 -0.185124E-04  0.655E-02    0.13       1.0  T
 107   -106.1291384 -0.194038E-04  0.584E-02    0.11       1.0  T
 108   -106.1291524 -0.139703E-04  0.531E-02    0.13       1.0  T
 109   -106.1291663 -0.138999E-04  0.469E-02    0.11       1.0  T
 110   -106.1291763 -0.100250E-04  0.421E-02    0.13       1.1  T
 111   -106.1291858 -0.951196E-05  0.367E-02    0.12       1.2  T
 112   -106.1291928 -0.699251E-05  0.324E-02    0.12       1.4  T
 113   -106.1291992 -0.642423E-05  0.276E-02    0.12       1.6  T
 114   -106.1292040 -0.476538E-05  0.236E-02    0.12       1.9  T
 115   -106.1292082 -0.416549E-05  0.193E-02    0.12       2.3  T
 116   -106.1292112 -0.302717E-05  0.156E-02    0.12       2.9  T
 117   -106.1292136 -0.241025E-05  0.117E-02    0.12       3.8  T
 118   -106.1292152 -0.159102E-05  0.817E-03    0.12       5.5  T
 119   -106.1292162 -0.999222E-06  0.479E-03    0.12       9.3  T
 120   -106.1292166 -0.432280E-06  0.202E-03    0.12      22.1  T
 121   -106.1292167 -0.911788E-07  0.305E-04    0.12     146.5  T
 122   -106.1292167 -0.212998E-08  0.350E-06    0.12   12794.5  T
 123   -106.1292167 -0.994760E-13  0.200E-07    0.12  100000.0  T
     SCC iter.                  ...        0 min,  0.062 sec
     gradient                   ...        0 min,  0.001 sec
 * total energy  :   -94.1805640 Eh     change       -0.1148970E+02 Eh
   gradient norm :    27.0430100 Eh/α   predicted    -0.1709519E+02 (  48.79%)
   displ. norm   :     0.8531715 α      lambda       -0.1631256E+02
   maximum displ.:     0.6714335 α      in ANC's #6, #8, #5, ...

........................................................................
.............................. CYCLE    7 ..............................
........................................................................
   1   -138.7411448 -0.138741E+03  0.245E+01   18.23       0.0  T
   2   -142.9758511 -0.423471E+01  0.855E+00   10.40       1.0  T
   3   -143.0189376 -0.430865E-01  0.461E+00   11.64       1.0  T
   4   -143.0227855 -0.384787E-02  0.298E-01   12.52       1.0  T
   5   -143.0242078 -0.142235E-02  0.267E-02   12.39       1.7  T
   6   -143.0241568  0.510013E-04  0.597E-02   12.37       1.0  T
   7   -143.0242083 -0.514913E-04  0.122E-03   12.39      36.7  T
   8   -143.0242083 -0.207200E-07  0.175E-04   12.39     256.0  T
   9   -143.0242083 -0.444999E-09  0.271E-05   12.39    1653.0  T
     SCC iter.                  ...        0 min,  0.004 sec
     gradient                   ...        0 min,  0.001 sec
 * total energy  :   -81.2106791 Eh     change        0.1296988E+02 Eh
   gradient norm :   125.8177560 Eh/α   predicted    -0.1409325E+02 (-208.66%)
   displ. norm   :     0.5803014 α      lambda       -0.6974603E+02
   maximum displ.:     0.5037353 α      in ANC's #8, #1, #6, ...

........................................................................
.............................. CYCLE    8 ..............................
........................................................................
   1   -133.0111630 -0.133011E+03  0.174E+01    5.13       0.0  T
   2   -136.3995602 -0.338840E+01  0.520E+00    6.08       1.0  T
   3   -136.4269323 -0.273721E-01  0.314E+00    4.98       1.0  T
   4   -136.4261500  0.782278E-03  0.221E-01    4.69       1.0  T
   5   -136.4271467 -0.996673E-03  0.120E-02    4.86       3.7  T
   6   -136.4271460  0.720266E-06  0.830E-03    4.87       5.4  T
   7   -136.4271474 -0.143557E-05  0.921E-04    4.87      48.6  T
   8   -136.4271474 -0.184688E-07  0.145E-05    4.87    3094.3  T
   9   -136.4271474 -0.514433E-11  0.107E-06    4.87   41965.1  T
     SCC iter.                  ...        0 min,  0.004 sec
     gradient                   ...        0 min,  0.001 sec
 * total energy  :  -108.4692679 Eh     change       -0.2725859E+02 Eh
   gradient norm :    27.6641869 Eh/α   predicted    -0.4661649E+02 (  71.02%)
   displ. norm   :     0.8280495 α      lambda       -0.2062757E+02
   maximum displ.:     0.5904031 α      in ANC's #8, #6, #5, ...

........................................................................
.............................. CYCLE    9 ..............................
........................................................................
   1   -145.6988644 -0.145699E+03  0.151E+01   21.92       0.0  T
   2   -147.0041840 -0.130532E+01  0.640E+00   23.42       1.0  T
   3   -147.2262487 -0.222065E+00  0.142E+00   14.79       1.0  T
   4   -147.2200640  0.618479E-02  0.124E+00   19.00       1.0  T
   5   -147.2343398 -0.142758E-01  0.696E-02   16.56       1.0  T
   6   -147.2343722 -0.324617E-04  0.269E-02   16.63       1.7  T
   7   -147.2343775 -0.522361E-05  0.457E-04   16.68      97.8  T
   8   -147.2343775 -0.175589E-08  0.809E-06   16.68    5530.8  T
   9   -147.2343775 -0.102318E-11  0.359E-06   16.68   12468.3  T
     SCC iter.                  ...        0 min,  0.004 sec
     gradient                   ...        0 min,  0.001 sec
 * total energy  :   -79.5298609 Eh     change        0.2893941E+02 Eh
   gradient norm :   171.4778529 Eh/α   predicted    -0.1738560E+02 (-160.08%)
   displ. norm   :     0.5082144 α      lambda       -0.8660732E+02
   maximum displ.:     0.4317029 α      in ANC's #8, #6, #1, ...

........................................................................
.............................. CYCLE   10 ..............................
........................................................................
   1   -154.0063168 -0.154006E+03  0.147E+01   20.27       0.0  T
   2   -157.8216123 -0.381530E+01  0.153E+00    7.58       1.0  T
   3   -157.8376848 -0.160724E-01  0.784E-01    7.28       1.0  T
   4   -157.8383979 -0.713167E-03  0.148E-01    7.44       1.0  T
   5   -157.8386066 -0.208657E-03  0.807E-02    7.59       1.0  T
   6   -157.8386834 -0.767692E-04  0.215E-02    7.55       2.1  T
   7   -157.8386896 -0.622651E-05  0.187E-03    7.54      23.9  T
   8   -157.8386896 -0.475537E-07  0.106E-06    7.54   42137.5  T
   9   -157.8386896 -0.653699E-12  0.681E-07    7.54   65638.3  T
     SCC iter.                  ...        0 min,  0.004 sec
     gradient                   ...        0 min,  0.001 sec
 * total energy  :  -115.6048516 Eh     change       -0.3607499E+02 Eh
   gradient norm :    15.0180798 Eh/α   predicted    -0.5448821E+02 (  51.04%)
   displ. norm   :     0.9849277 α      lambda       -0.1262172E+02
   maximum displ.:     0.9037154 α      in ANC's #1, #6, #5, ...

........................................................................
.............................. CYCLE   11 ..............................
........................................................................
   1   -124.2630059 -0.124263E+03  0.846E+00    3.62       0.0  T
   2   -124.4765468 -0.213541E+00  0.452E+00    3.43       1.0  T
   3   -124.5172609 -0.407141E-01  0.122E+00    3.47       1.0  T
   4   -124.5215975 -0.433653E-02  0.516E-01    3.02       1.0  T
   5   -124.5240044 -0.240695E-02  0.150E-01    3.11       1.0  T
   6   -124.5239766  0.277759E-04  0.124E-01    3.17       1.0  T
   7   -124.5241319 -0.155300E-03  0.778E-03    3.14       5.7  T
   8   -124.5241325 -0.597294E-06  0.980E-05    3.14     456.5  T
   9   -124.5241325 -0.518128E-10  0.622E-05    3.14     719.1  T
     SCC iter.                  ...        0 min,  0.003 sec
     gradient                   ...        0 min,  0.001 sec
 * total energy  :   -92.2685851 Eh     change        0.2333627E+02 Eh
   gradient norm :    99.7492760 Eh/α   predicted    -0.1243292E+02 (-153.28%)
   displ. norm   :     0.3570439 α      lambda       -0.3149464E+02
   maximum displ.:     0.2640428 α      in ANC's #5, #6, #1, ...

........................................................................
.............................. CYCLE   12 ..............................
........................................................................
   1   -151.4411762 -0.151441E+03  0.677E+00    3.20       0.0  T
   2   -151.5880607 -0.146884E+00  0.374E+00    3.58       1.0  T
   3   -151.6043823 -0.163216E-01  0.141E+00    4.27       1.0  T
   4   -151.6079521 -0.356975E-02  0.384E-01    4.47       1.0  T
   5   -151.6087114 -0.759273E-03  0.691E-02    4.55       1.0  T
   6   -151.6087165 -0.510611E-05  0.246E-02    4.55       1.8  T
   7   -151.6087216 -0.515225E-05  0.243E-03    4.55      18.4  T
   8   -151.6087217 -0.554136E-07  0.624E-05    4.55     716.7  T
   9   -151.6087217 -0.349303E-10  0.580E-06    4.55    7713.9  T
     SCC iter.                  ...        0 min,  0.004 sec
     gradient                   ...        0 min,  0.001 sec
 * total energy  :  -121.3665824 Eh     change       -0.2909800E+02 Eh
   gradient norm :    74.5117872 Eh/α   predicted    -0.1775480E+02 ( -38.98%)
   displ. norm   :     0.5938956 α      lambda       -0.3687804E+02
   maximum displ.:     0.4237047 α      in ANC's #1, #8, #5, ...

........................................................................
.............................. CYCLE   13 ..............................
........................................................................
   1   -121.0931017 -0.121093E+03  0.109E+01    7.50       0.0  T
   2   -121.3427794 -0.249678E+00  0.595E+00    6.24       1.0  T
   3   -121.3773024 -0.345230E-01  0.213E+00    6.71       1.0  T
   4   -121.3813028 -0.400038E-02  0.124E-01    7.06       1.0  T
   5   -121.3813257 -0.228472E-04  0.443E-02    7.09       1.0  T
   6   -121.3813266 -0.966833E-06  0.103E-02    7.09       4.3  T
   7   -121.3813273 -0.663825E-06  0.559E-04    7.09      80.0  T
   8   -121.3813273 -0.169678E-09  0.136E-04    7.09     328.4  T
   9   -121.3813273 -0.596856E-11  0.170E-05    7.09    2635.4  T
     SCC iter.                  ...        0 min,  0.004 sec
     gradient                   ...        0 min,  0.001 sec
 * total energy  :   -92.0281921 Eh     change        0.2933839E+02 Eh
   gradient norm :    92.8242115 Eh/α   predicted    -0.2494269E+02 (-185.02%)
   displ. norm   :     0.3946005 α      lambda       -0.2675386E+02
   maximum displ.:     0.2808045 α      in ANC's #9, #1, #5, ...

........................................................................
.............................. CYCLE   14 ..............................
........................................................................
   1   -146.5166251 -0.146517E+03  0.130E+01    5.06       0.0  T
   2   -146.8037874 -0.287162E+00  0.600E+00    5.10       1.0  T
   3   -146.8538056 -0.500182E-01  0.108E+00    4.88       1.0  T
   4   -146.8569590 -0.315347E-02  0.378E-01    4.95       1.0  T
   5   -146.8571753 -0.216219E-03  0.632E-02    4.93       1.0  T
   6   -146.8571810 -0.571888E-05  0.242E-02    4.92       1.9  T
   7   -146.8571812 -0.207957E-06  0.388E-03    4.92      11.5  T
   8   -146.8571812 -0.405719E-07  0.216E-04    4.92     207.0  T
   9   -146.8571812 -0.183036E-10  0.618E-05    4.92     724.1  T
  10   -146.8571812 -0.463274E-11  0.249E-06    4.92   17950.8  T
     SCC iter.                  ...        0 min,  0.004 sec
     gradient                   ...        0 min,  0.001 sec
 * total energy  :  -112.5284648 Eh     change       -0.2050027E+02 Eh
   gradient norm :   104.1629467 Eh/α   predicted    -0.1545985E+02 ( -24.59%)
   displ. norm   :     0.9220013 α      lambda       -0.8700373E+02
   maximum displ.:     0.6083593 α      in ANC's #8, #1, #5, ...

........................................................................
.............................. CYCLE   15 ..............................
........................................................................
   1    -90.9104853 -0.909105E+02  0.162E+01   10.74       0.0  T
   2    -91.2686198 -0.358134E+00  0.865E+00    9.72       1.0  T
   3    -91.3242828 -0.556630E-01  0.224E+00    8.52       1.0  T
   4    -91.3275606 -0.327782E-02  0.389E-01    8.06       1.0  T
   5    -91.3322814 -0.472081E-02  0.731E-02    8.03       1.0  T
   6    -91.3324052 -0.123817E-03  0.165E-02    8.01       2.7  T
   7    -91.3324060 -0.733626E-06  0.526E-03    8.00       8.5  T
   8    -91.3324063 -0.281982E-06  0.564E-05    8.00     792.6  T
   9    -91.3324063 -0.794671E-10  0.747E-06    8.00    5986.0  T
     SCC iter.                  ...        0 min,  0.004 sec
     gradient                   ...        0 min,  0.001 sec
 * total energy  :   -76.7917475 Eh     change        0.3573672E+02 Eh
   gradient norm :    43.1590032 Eh/α   predicted    -0.8048219E+02 (-325.21%)
   displ. norm   :     0.2865003 α      lambda       -0.1152133E+02
   maximum displ.:     0.1955284 α      in ANC's #8, #5, #6, ...

........................................................................
.............................. CYCLE   16 ..............................
........................................................................
   1   -110.7969006 -0.110797E+03  0.753E+00    4.59       0.0  T
   2   -110.9319916 -0.135091E+00  0.385E+00    2.54       1.0  T
   3   -110.9417180 -0.972640E-02  0.227E+00    2.73       1.0  T
   4   -110.9397534  0.196457E-02  0.107E+00    2.64       1.0  T
   5   -110.9482354 -0.848195E-02  0.290E-01    2.70       1.0  T
   6   -110.9488553 -0.619932E-03  0.694E-02    2.73       1.0  T
   7   -110.9488514  0.391220E-05  0.701E-02    2.73       1.0  T
   8   -110.9488857 -0.343051E-04  0.202E-02    2.74       2.2  T
   9   -110.9488887 -0.303141E-05  0.571E-03    2.74       7.8  T
  10   -110.9488889 -0.218324E-06  0.214E-03    2.74      20.9  T
  11   -110.9488890 -0.366783E-07  0.442E-05    2.74    1011.3  T
  12   -110.9488890 -0.144240E-10  0.568E-07    2.74   78784.8  T
     SCC iter.                  ...        0 min,  0.005 sec
     gradient                   ...        0 min,  0.001 sec
 * total energy  :   -91.7969137 Eh     change       -0.1500517E+02 Eh
   gradient norm :    73.0008708 Eh/α   predicted    -0.6233514E+01 ( -58.46%)
   displ. norm   :     0.4408478 α      lambda       -0.3018155E+02
   maximum displ.:     0.2778614 α      in ANC's #8, #5, #1, ...

........................................................................
.............................. CYCLE   17 ..............................
........................................................................
   1   -147.1623268 -0.147162E+03  0.948E+00    4.71       0.0  T
   2   -147.3232716 -0.160945E+00  0.532E+00    3.02       1.0  T
   3   -147.2818193  0.414523E-01  0.320E+00    2.28       1.0  T
   4   -147.3590030 -0.771837E-01  0.126E+00    3.03       1.0  T
   5   -147.3612821 -0.227910E-02  0.150E-01    3.06       1.0  T
   6   -147.3612175  0.646595E-04  0.170E-01    3.09       1.0  T
   7   -147.3614376 -0.220137E-03  0.183E-02    3.02       2.4  T
   8   -147.3614308  0.680148E-05  0.310E-02    3.03       1.4  T
   9   -147.3614379 -0.714389E-05  0.596E-03    3.02       7.5  T
  10   -147.3614382 -0.228336E-06  0.314E-03    3.02      14.2  T
  11   -147.3614383 -0.877662E-07  0.188E-04    3.02     237.7  T
  12   -147.3614383 -0.308660E-09  0.103E-05    3.02    4332.7  T
     SCC iter.                  ...        0 min,  0.005 sec
     gradient                   ...        0 min,  0.001 sec
 * total energy  :  -122.0099575 Eh     change       -0.3021304E+02 Eh
   gradient norm :    40.3457475 Eh/α   predicted    -0.1802362E+02 ( -40.34%)
   displ. norm   :     0.7077488 α      lambda       -0.1888810E+02
   maximum displ.:     0.5248253 α      in ANC's #7, #1, #5, ...

........................................................................
.............................. CYCLE   18 ..............................
........................................................................
   1   -104.4763063 -0.104476E+03  0.231E+01    6.26       0.0  T
   2   -111.5588878 -0.708258E+01  0.893E+00   16.66       1.0  T
   3   -113.1583738 -0.159949E+01  0.593E+00    6.38       1.0  T
   4   -113.2467665 -0.883927E-01  0.216E+00    7.40       1.0  T
   5   -113.2896451 -0.428786E-01  0.615E-01    8.68       1.0  T
   6   -113.2901388 -0.493625E-03  0.883E-02    8.91       1.0  T
   7   -113.2901908 -0.520427E-04  0.204E-02    8.89       2.2  T
   8   -113.2901881  0.270363E-05  0.150E-02    8.88       3.0  T
   9   -113.2901919 -0.383805E-05  0.512E-04    8.89      87.3  T
  10   -113.2901919 -0.279898E-08  0.272E-04    8.89     164.4  T
  11   -113.2901919 -0.124720E-08  0.701E-06    8.89    6381.3  T
  12   -113.2901919 -0.154898E-11  0.426E-07    8.89  100000.0  T
     SCC iter.                  ...        0 min,  0.005 sec
     gradient                   ...        0 min,  0.001 sec
 * total energy  :   -31.9311155 Eh     change        0.9007884E+02 Eh
   gradient norm :   397.4009962 Eh/α   predicted    -0.1417465E+02 (-115.74%)
   displ. norm   :     0.4657020 α      lambda       -0.1695255E+03
   maximum displ.:     0.4129188 α      in ANC's #7, #8, #9, ...

........................................................................
.............................. CYCLE   19 ..............................
........................................................................
   1   -116.4311326 -0.116431E+03  0.157E+01    8.49       0.0  T
   2   -120.9327033 -0.450157E+01  0.507E+00    5.08       1.0  T
   3   -121.6872139 -0.754511E+00  0.301E+00    5.54       1.0  T
   4   -121.7154222 -0.282083E-01  0.118E+00    4.95       1.0  T
   5   -121.7169267 -0.150442E-02  0.208E-01    4.81       1.0  T
   6   -121.7173100 -0.383358E-03  0.157E-02    4.82       2.8  T
   7   -121.7173092  0.841820E-06  0.918E-03    4.81       4.9  T
   8   -121.7173104 -0.126286E-05  0.859E-04    4.81      52.1  T
   9   -121.7173104 -0.111107E-07  0.121E-04    4.81     369.2  T
  10   -121.7173104 -0.206271E-09  0.751E-05    4.81     595.4  T
     SCC iter.                  ...        0 min,  0.004 sec
     gradient                   ...        0 min,  0.001 sec
 * total energy  :   -91.6741710 Eh     change       -0.5974306E+02 Eh
   gradient norm :   100.8808248 Eh/α   predicted    -0.1031460E+03 (  72.65%)
   displ. norm   :     0.9090945 α      lambda       -0.8785007E+02
   maximum displ.:     0.5366767 α      in ANC's #8, #9, #1, ...

........................................................................
.............................. CYCLE   20 ..............................
........................................................................
   1   -115.7910863 -0.115791E+03  0.173E+01   18.76       0.0  T
   2   -117.6543850 -0.186330E+01  0.794E+00   21.44       1.0  T
   3   -117.7678800 -0.113495E+00  0.243E+00   12.40       1.0  T
   4   -117.7961555 -0.282755E-01  0.528E-01    9.87       1.0  T
   5   -117.7962863 -0.130781E-03  0.123E-01   10.22       1.0  T
   6   -117.7962972 -0.109193E-04  0.981E-03   10.20       4.6  T
   7   -117.7962978 -0.577697E-06  0.519E-04   10.21      86.2  T
   8   -117.7962978 -0.423498E-09  0.218E-04   10.21     205.6  T
   9   -117.7962978 -0.167844E-09  0.101E-05   10.21    4441.2  T
  10   -117.7962978 -0.895284E-12  0.142E-06   10.21   31537.7  T
     SCC iter.                  ...        0 min,  0.004 sec
     gradient                   ...        0 min,  0.001 sec
 * total energy  :   -95.8983586 Eh     change       -0.4224188E+01 Eh
   gradient norm :    78.6347457 Eh/α   predicted    -0.8022700E+02 (1799.23%)
   displ. norm   :     0.3791800 α      lambda       -0.2631624E+02
   maximum displ.:     0.2342370 α      in ANC's #8, #9, #5, ...
 * RMSD in coord.:     1.7088340 α      energy gain  -0.4012111E+02 Eh

generating ANC from model Hessian ...
Using Lindh-Hessian (1995)
 Shifting diagonal of input Hessian by    0.0000000000000000     
 Lowest  eigenvalues of input Hessian
    0.000000    0.000000    0.000000    0.000000    0.000000    0.000000
    7.969712   11.275529   13.087724   14.086721   19.954659   42.608040
   77.306772  115.087495  138.694461
 Highest eigenvalues
   14.086721   19.954659   42.608040   77.306772  115.087495  138.694461


........................................................................
.............................. CYCLE   21 ..............................
........................................................................
   1   -138.1072027 -0.138107E+03  0.145E+01    9.48       0.0  T
   2   -139.1525077 -0.104530E+01  0.428E+00    3.00       1.0  T
   3   -139.1782647 -0.257571E-01  0.393E+00    0.81       1.0  T
   4   -139.1792014 -0.936624E-03  0.238E+00    2.22       1.0  T
   5   -139.2239923 -0.447909E-01  0.406E-01    1.13       1.0  T
   6   -139.2224947  0.149755E-02  0.536E-01    1.10       1.0  T
   7   -139.2240987 -0.160401E-02  0.243E-01    1.22       1.0  T
   8   -139.2234468  0.651950E-03  0.379E-01    1.11       1.0  T
   9   -139.2246144 -0.116764E-02  0.928E-02    1.18       1.0  T
  10   -139.2247028 -0.884157E-04  0.181E-02    1.17       2.5  T
  11   -139.2246946  0.819492E-05  0.287E-02    1.17       1.6  T
  12   -139.2247024 -0.773735E-05  0.819E-03    1.17       5.5  T
  13   -139.2247030 -0.644181E-06  0.194E-03    1.17      23.1  T
  14   -139.2247030 -0.356322E-07  0.417E-05    1.17    1071.4  T
  15   -139.2247030  0.714522E-10  0.925E-05    1.17     483.7  T
     SCC iter.                  ...        0 min,  0.006 sec
     gradient                   ...        0 min,  0.001 sec
 * total energy  :  -118.1868933 Eh     change       -0.2228853E+02 Eh
   gradient norm :    46.8549893 Eh/α   predicted     0.0000000E+00 (-100.00%)
   displ. norm   :     0.9480663 α      lambda       -0.4442163E+02
   maximum displ.:     0.6607748 α      in ANC's #1, #3, #2, ...

........................................................................
.............................. CYCLE   22 ..............................
........................................................................
   1   -102.8074919 -0.102807E+03  0.160E+01    4.34       0.0  T
   2   -103.8031353 -0.995643E+00  0.838E+00    3.72       1.0  T
   3   -103.8533462 -0.502109E-01  0.375E+00    2.01       1.0  T
   4   -104.1049971 -0.251651E+00  0.161E+00    2.30       1.0  T
   5   -104.1028910  0.210606E-02  0.124E+00    1.84       1.0  T
   6   -104.1116154 -0.872437E-02  0.385E-01    1.96       1.0  T
   7   -104.1119916 -0.376261E-03  0.181E-01    1.95       1.0  T
   8   -104.1121431 -0.151468E-03  0.499E-02    1.92       1.0  T
   9   -104.1121528 -0.967071E-05  0.409E-03    1.91      10.9  T
  10   -104.1121528 -0.291398E-07  0.141E-03    1.91      31.7  T
  11   -104.1121528 -0.300604E-08  0.143E-04    1.91     312.3  T
  12   -104.1121528 -0.176357E-10  0.879E-05    1.91     508.7  T
     SCC iter.                  ...        0 min,  0.005 sec
     gradient                   ...        0 min,  0.001 sec
 * total energy  :   -59.1041158 Eh     change        0.5908278E+02 Eh
   gradient norm :    97.1413000 Eh/α   predicted    -0.4217456E+02 (-171.38%)
   displ. norm   :     0.5353695 α      lambda       -0.4862241E+02
   maximum displ.:     0.3895986 α      in ANC's #1, #8, #4, ...

........................................................................
.............................. CYCLE   23 ..............................
........................................................................
   1   -100.5927312 -0.100593E+03  0.145E+01    1.98       0.0  T
   2   -103.4594090 -0.286668E+01  0.871E+00    5.01       1.0  T
   3   -104.3557586 -0.896350E+00  0.363E+00    1.81       1.0  T
   4   -104.3538350  0.192360E-02  0.162E+00    1.35       1.0  T
   5   -104.3731821 -0.193471E-01  0.679E-01    1.39       1.0  T
   6   -104.3757991 -0.261700E-02  0.149E-01    1.40       1.0  T
   7   -104.3758833 -0.842367E-04  0.108E-01    1.41       1.0  T
   8   -104.3759608 -0.775139E-04  0.306E-02    1.41       1.5  T
   9   -104.3759655 -0.469487E-05  0.334E-03    1.41      13.4  T
  10   -104.3759656 -0.559492E-07  0.377E-04    1.41     118.6  T
  11   -104.3759656 -0.556270E-09  0.459E-05    1.41     974.7  T
  12   -104.3759656 -0.109424E-10  0.102E-05    1.41    4404.5  T
     SCC iter.                  ...        0 min,  0.005 sec
     gradient                   ...        0 min,  0.001 sec
 * total energy  :   -78.3371352 Eh     change       -0.1923302E+02 Eh
   gradient norm :    81.2719901 Eh/α   predicted    -0.3127930E+02 (  62.63%)
   displ. norm   :     0.9372315 α      lambda       -0.6998167E+02
   maximum displ.:     0.6142751 α      in ANC's #1, #4, #2, ...

........................................................................
.............................. CYCLE   24 ..............................
........................................................................
   1   -113.4816429 -0.113482E+03  0.128E+01    4.11       0.0  T
   2   -116.7823491 -0.330071E+01  0.435E+00    4.86       1.0  T
   3   -116.8904473 -0.108098E+00  0.246E+00    3.42       1.0  T
   4   -116.8975939 -0.714659E-02  0.910E-01    3.54       1.0  T
   5   -116.8976853 -0.913470E-04  0.105E-01    3.50       1.0  T
   6   -116.8977463 -0.609951E-04  0.449E-02    3.56       1.0  T
   7   -116.8977591 -0.128730E-04  0.185E-02    3.55       2.4  T
   8   -116.8977615 -0.239080E-05  0.379E-03    3.54      11.8  T
   9   -116.8977616 -0.101892E-06  0.150E-04    3.54     298.7  T
  10   -116.8977616 -0.107519E-09  0.929E-05    3.54     481.1  T
     SCC iter.                  ...        0 min,  0.004 sec
     gradient                   ...        0 min,  0.001 sec
 * total energy  :  -104.0618278 Eh     change       -0.2572469E+02 Eh
   gradient norm :    44.0814447 Eh/α   predicted    -0.6572688E+02 ( 155.50%)
   displ. norm   :     0.5263258 α      lambda       -0.1769098E+02
   maximum displ.:     0.3294170 α      in ANC's #1, #7, #4, ...

........................................................................
.............................. CYCLE   25 ..............................
........................................................................
   1   -128.0548758 -0.128055E+03  0.176E+01   10.11       0.0  T
   2   -130.8501164 -0.279524E+01  0.750E+00   15.18       1.0  T
   3   -130.9471540 -0.970376E-01  0.272E+00    8.30       1.0  T
   4   -130.9623614 -0.152074E-01  0.664E-01    4.75       1.0  T
   5   -130.9625752 -0.213807E-03  0.122E-01    5.31       1.0  T
   6   -130.9626713 -0.960650E-04  0.282E-02    5.20       1.6  T
   7   -130.9626745 -0.323042E-05  0.720E-03    5.19       6.2  T
   8   -130.9626746 -0.759938E-07  0.229E-03    5.18      19.5  T
   9   -130.9626746 -0.151821E-07  0.915E-05    5.18     488.5  T
  10   -130.9626746 -0.883915E-11  0.592E-05    5.18     755.9  T
     SCC iter.                  ...        0 min,  0.004 sec
     gradient                   ...        0 min,  0.001 sec
 * total energy  :  -109.0437901 Eh     change       -0.4981962E+01 Eh
   gradient norm :    75.4460011 Eh/α   predicted    -0.1129586E+02 ( 126.74%)
   displ. norm   :     0.7787430 α      lambda       -0.4636090E+02
   maximum displ.:     0.5107048 α      in ANC's #1, #2, #3, ...

........................................................................
.............................. CYCLE   26 ..............................
........................................................................
   1   -121.0956292 -0.121096E+03  0.579E+00    3.68       0.0  T
   2   -121.1698418 -0.742126E-01  0.292E+00    3.77       1.0  T
   3   -121.1754258 -0.558408E-02  0.113E+00    4.01       1.0  T
   4   -121.1759262 -0.500368E-03  0.246E-01    3.98       1.0  T
   5   -121.1768054 -0.879207E-03  0.931E-02    4.01       1.0  T
   6   -121.1768340 -0.286049E-04  0.371E-02    4.00       1.2  T
   7   -121.1768358 -0.177918E-05  0.347E-03    4.00      12.9  T
   8   -121.1768359 -0.697208E-07  0.196E-04    4.00     228.2  T
   9   -121.1768359 -0.828777E-10  0.292E-05    4.00    1530.3  T
     SCC iter.                  ...        0 min,  0.004 sec
     gradient                   ...        0 min,  0.001 sec
 * total energy  :   -81.2934828 Eh     change        0.2775031E+02 Eh
   gradient norm :   115.9218025 Eh/α   predicted    -0.3723801E+02 (-234.19%)
   displ. norm   :     0.5646493 α      lambda       -0.5748632E+02
   maximum displ.:     0.3153906 α      in ANC's #3, #4, #1, ...

........................................................................
.............................. CYCLE   27 ..............................
........................................................................
   1   -141.4381280 -0.141438E+03  0.216E+01    6.20       0.0  T
   2   -144.7318845 -0.329376E+01  0.971E+00    3.34       1.0  T
   3   -145.2452949 -0.513410E+00  0.360E+00    2.55       1.0  T
   4   -145.3022546 -0.569597E-01  0.939E-01    2.54       1.0  T
   5   -145.3040329 -0.177828E-02  0.229E-01    2.49       1.0  T
   6   -145.3042614 -0.228539E-03  0.650E-02    2.48       1.0  T
   7   -145.3042713 -0.982748E-05  0.387E-03    2.48      11.5  T
   8   -145.3042718 -0.514526E-06  0.620E-04    2.48      72.2  T
   9   -145.3042718 -0.222630E-08  0.199E-04    2.48     224.4  T
  10   -145.3042718 -0.445937E-10  0.984E-05    2.48     454.5  T
     SCC iter.                  ...        0 min,  0.004 sec
     gradient                   ...        0 min,  0.001 sec
 * total energy  :  -109.1133074 Eh     change       -0.2781982E+02 Eh
   gradient norm :   114.6429056 Eh/α   predicted    -0.3790730E+02 (  36.26%)
   displ. norm   :     0.7034990 α      lambda       -0.6896197E+02
   maximum displ.:     0.5847927 α      in ANC's #2, #1, #4, ...

........................................................................
.............................. CYCLE   28 ..............................
........................................................................
   1   -114.7137158 -0.114714E+03  0.201E+01   22.35       0.0  T
   2   -115.6223080 -0.908592E+00  0.967E+00   13.63       1.0  T
   3   -115.3804008  0.241907E+00  0.684E+00    0.32       1.0  T
   4   -115.7954290 -0.415028E+00  0.306E+00    4.46       1.0  T
   5   -115.8190959 -0.236669E-01  0.717E-01    0.55       1.0  T
   6   -115.8159859  0.310994E-02  0.983E-01    0.45       1.0  T
   7   -115.1861847  0.629801E+00  0.820E+00    0.46       1.0  T
   8   -115.8139130 -0.627728E+00  0.138E+00    2.58       1.0  T
   9   -115.8149827 -0.106969E-02  0.126E+00    2.38       1.0  T
  10   -115.8157874 -0.804774E-03  0.116E+00    2.23       1.0  T
  11   -115.8173674 -0.157995E-02  0.946E-01    1.91       1.0  T
  12   -115.8182638 -0.896377E-03  0.806E-01    1.70       1.0  T
  13   -115.8178676  0.396208E-03  0.868E-01    1.80       1.0  T
  14   -115.8180398 -0.172239E-03  0.828E-01    1.77       1.0  T
  15   -115.8201101 -0.207031E-02  0.397E-01    1.20       1.0  T
  16   -115.8208568 -0.746662E-03  0.101E-01    0.85       1.0  T
  17   -115.8208808 -0.240391E-04  0.718E-02    0.76       1.0  T
  18   -115.8208863 -0.550608E-05  0.412E-02    0.76       1.1  T
  19   -115.8208910 -0.471998E-05  0.571E-03    0.78       7.8  T
  20   -115.8208912 -0.122078E-06  0.933E-04    0.78      47.9  T
  21   -115.8208911  0.325142E-08  0.782E-04    0.78      57.2  T
  22   -115.8208912 -0.346679E-08  0.176E-04    0.78     254.8  T
  23   -115.8208912 -0.252953E-10  0.167E-05    0.78    2685.3  T
     SCC iter.                  ...        0 min,  0.009 sec
     gradient                   ...        0 min,  0.001 sec
 * total energy  :   -97.0479538 Eh     change        0.1206535E+02 Eh
   gradient norm :    79.6574621 Eh/α   predicted    -0.5154601E+02 (-527.22%)
   displ. norm   :     0.4507935 α      lambda       -0.2733439E+02
   maximum displ.:     0.2382348 α      in ANC's #2, #3, #4, ...

........................................................................
.............................. CYCLE   29 ..............................
........................................................................
   1   -123.0552594 -0.123055E+03  0.512E+00   11.63       0.0  T
   2   -123.3062707 -0.251011E+00  0.231E+00    9.29       1.0  T
   3   -123.3144101 -0.813941E-02  0.935E-01    7.62       1.0  T
   4   -123.3155360 -0.112596E-02  0.197E-01    6.82       1.0  T
   5   -123.3156394 -0.103332E-03  0.482E-02    6.95       1.0  T
   6   -123.3156430 -0.366323E-05  0.889E-03    6.98       5.0  T
   7   -123.3156433 -0.308238E-06  0.596E-04    6.99      75.1  T
   8   -123.3156433 -0.139892E-09  0.128E-04    6.99     349.1  T
   9   -123.3156433 -0.194234E-09  0.208E-06    6.99   21521.6  T
     SCC iter.                  ...        0 min,  0.004 sec
     gradient                   ...        0 min,  0.001 sec
 * total energy  :  -106.3927179 Eh     change       -0.9344764E+01 Eh
   gradient norm :    57.2267656 Eh/α   predicted    -0.1644457E+02 (  75.98%)
   displ. norm   :     0.8432546 α      lambda       -0.3993953E+02
   maximum displ.:     0.5520596 α      in ANC's #1, #2, #3, ...

........................................................................
.............................. CYCLE   30 ..............................
........................................................................
   1   -134.4148345 -0.134415E+03  0.259E+01   13.64       0.0  T
   2   -139.7424213 -0.532759E+01  0.862E+00   17.37       1.0  T
   3   -140.2225463 -0.480125E+00  0.554E+00   18.15       1.0  T
   4   -140.3430540 -0.120508E+00  0.104E+00   18.78       1.0  T
   5   -140.3442507 -0.119664E-02  0.243E-01   18.82       1.0  T
   6   -140.3443366 -0.859141E-04  0.149E-02   18.82       3.0  T
   7   -140.3443365  0.107515E-06  0.789E-03   18.82       5.7  T
   8   -140.3443368 -0.383549E-06  0.742E-04   18.82      60.3  T
   9   -140.3443369 -0.742222E-08  0.146E-05   18.82    3053.1  T
  10   -140.3443369  0.221689E-11  0.135E-05   18.82    3313.6  T
     SCC iter.                  ...        0 min,  0.004 sec
     gradient                   ...        0 min,  0.001 sec
 * total energy  :   -82.3088031 Eh     change        0.2408391E+02 Eh
   gradient norm :   224.1755693 Eh/α   predicted    -0.3416986E+02 (-241.88%)
   displ. norm   :     0.4402671 α      lambda       -0.9695803E+02
   maximum displ.:     0.2921077 α      in ANC's #4, #8, #5, ...

........................................................................
.............................. CYCLE   31 ..............................
........................................................................
   1   -147.3238686 -0.147324E+03  0.143E+01    0.70       0.0  T
   2   -150.6710872 -0.334722E+01  0.479E+00    1.39       1.0  T
   3   -150.7508084 -0.797212E-01  0.303E+00    0.98       1.0  T
   4   -150.7600218 -0.921337E-02  0.449E-01    0.94       1.0  T
   5   -150.7604311 -0.409287E-03  0.433E-01    0.94       1.0  T
   6   -150.7604773 -0.462613E-04  0.165E-01    0.94       1.0  T
   7   -150.7605939 -0.116626E-03  0.289E-02    0.94       1.6  T
   8   -150.7605944 -0.424021E-06  0.677E-03    0.94       6.6  T
   9   -150.7605944 -0.497178E-07  0.160E-03    0.94      27.9  T
  10   -150.7605944 -0.117751E-09  0.164E-04    0.94     272.8  T
  11   -150.7605944 -0.234394E-09  0.720E-06    0.94    6211.8  T
     SCC iter.                  ...        0 min,  0.004 sec
     gradient                   ...        0 min,  0.001 sec
 * total energy  :  -118.0348067 Eh     change       -0.3572600E+02 Eh
   gradient norm :    71.2824991 Eh/α   predicted    -0.5787595E+02 (  62.00%)
   displ. norm   :     0.7259683 α      lambda       -0.3556573E+02
   maximum displ.:     0.4524046 α      in ANC's #2, #5, #3, ...

........................................................................
.............................. CYCLE   32 ..............................
........................................................................
   1   -136.1543946 -0.136154E+03  0.130E+01    9.73       0.0  T
   2   -136.5409892 -0.386595E+00  0.636E+00    4.06       1.0  T
   3   -136.6254393 -0.844502E-01  0.376E+00    1.64       1.0  T
   4   -136.6955889 -0.701495E-01  0.130E+00    1.75       1.0  T
   5   -136.6790537  0.165351E-01  0.188E+00    1.91       1.0  T
   6   -136.6956057 -0.165520E-01  0.486E-01    1.99       1.0  T
   7   -136.6965979 -0.992199E-03  0.161E-01    2.02       1.0  T
   8   -136.6967284 -0.130494E-03  0.276E-02    2.04       1.6  T
   9   -136.6967299 -0.144950E-05  0.729E-03    2.04       6.1  T
  10   -136.6967300 -0.924335E-07  0.121E-03    2.04      37.0  T
  11   -136.6967300 -0.600465E-08  0.136E-03    2.04      33.0  T
  12   -136.6967300 -0.144345E-08  0.370E-05    2.04    1207.1  T
  13   -136.6967300  0.252953E-11  0.362E-05    2.04    1234.1  T
     SCC iter.                  ...        0 min,  0.005 sec
     gradient                   ...        0 min,  0.001 sec
 * total energy  :  -106.0567536 Eh     change        0.1197805E+02 Eh
   gradient norm :    87.4962720 Eh/α   predicted    -0.2715497E+02 (-326.71%)
   displ. norm   :     0.3928108 α      lambda       -0.2733708E+02
   maximum displ.:     0.2322707 α      in ANC's #2, #5, #8, ...

........................................................................
.............................. CYCLE   33 ..............................
........................................................................
   1   -152.0594468 -0.152059E+03  0.921E+00    5.74       0.0  T
   2   -152.2239164 -0.164470E+00  0.489E+00    2.51       1.0  T
   3   -152.2168160  0.710042E-02  0.318E+00    0.48       1.0  T
   4   -152.2929085 -0.760925E-01  0.146E+00    0.98       1.0  T
   5   -152.2878635  0.504502E-02  0.879E-01    1.16       1.0  T
   6   -152.2932692 -0.540568E-02  0.208E-01    1.43       1.0  T
   7   -152.2934930 -0.223888E-03  0.331E-02    1.36       1.3  T
   8   -152.2934967 -0.361867E-05  0.161E-02    1.36       2.8  T
   9   -152.2934975 -0.845187E-06  0.474E-03    1.36       9.4  T
  10   -152.2934975 -0.261198E-07  0.111E-03    1.35      40.2  T
  11   -152.2934975 -0.703736E-08  0.567E-04    1.35      78.9  T
  12   -152.2934975 -0.246172E-08  0.487E-05    1.35     918.8  T
  13   -152.2934975 -0.301270E-11  0.133E-06    1.35   33699.9  T
     SCC iter.                  ...        0 min,  0.005 sec
     gradient                   ...        0 min,  0.001 sec
 * total energy  :  -122.8224063 Eh     change       -0.1676565E+02 Eh
   gradient norm :    44.2659055 Eh/α   predicted    -0.1577760E+02 (  -5.89%)
   displ. norm   :     0.8797863 α      lambda       -0.3225894E+02
   maximum displ.:     0.5127968 α      in ANC's #3, #7, #2, ...

........................................................................
.............................. CYCLE   34 ..............................
........................................................................
   1   -134.6834323 -0.134683E+03  0.106E+01    2.17       0.0  T
   2   -136.6343097 -0.195088E+01  0.430E+00    5.83       1.0  T
   3   -136.7737012 -0.139392E+00  0.264E+00    5.76       1.0  T
   4   -136.7851189 -0.114176E-01  0.480E-01    6.57       1.0  T
   5   -136.7860011 -0.882231E-03  0.709E-02    6.57       1.0  T
   6   -136.7860508 -0.497566E-04  0.317E-02    6.54       1.4  T
   7   -136.7860537 -0.285108E-05  0.382E-03    6.51      11.7  T
   8   -136.7860537 -0.175587E-07  0.410E-04    6.51     109.2  T
   9   -136.7860537 -0.117930E-08  0.830E-06    6.51    5389.7  T
  10   -136.7860537 -0.397904E-12  0.373E-06    6.51   12002.8  T
     SCC iter.                  ...        0 min,  0.004 sec
     gradient                   ...        0 min,  0.001 sec
 * total energy  :   -98.6543158 Eh     change        0.2416809E+02 Eh
   gradient norm :    58.4767074 Eh/α   predicted    -0.2861406E+02 (-218.40%)
   displ. norm   :     0.4271828 α      lambda       -0.2279923E+02
   maximum displ.:     0.2398240 α      in ANC's #2, #3, #1, ...

........................................................................
.............................. CYCLE   35 ..............................
........................................................................
   1   -153.0574510 -0.153057E+03  0.873E+00    0.45       0.0  T
   2   -153.8442924 -0.786841E+00  0.513E+00    1.01       1.0  T
   3   -153.8863003 -0.420079E-01  0.325E+00    0.55       1.0  T
   4   -153.9317249 -0.454246E-01  0.235E+00    0.43       1.0  T
   5   -153.9239627  0.776224E-02  0.195E+00    0.34       1.0  T
   6   -153.9388661 -0.149034E-01  0.131E+00    0.39       1.0  T
   7   -153.9425408 -0.367475E-02  0.914E-01    0.36       1.0  T
   8   -153.9440030 -0.146220E-02  0.630E-01    0.32       1.0  T
   9   -153.9456452 -0.164220E-02  0.253E-01    0.33       1.0  T
  10   -153.9459406 -0.295346E-03  0.132E-02    0.33       3.4  T
  11   -153.9459337  0.684422E-05  0.381E-02    0.33       1.2  T
  12   -153.9459406 -0.684143E-05  0.342E-03    0.33      13.1  T
  13   -153.9459406 -0.375967E-07  0.154E-03    0.33      29.0  T
  14   -153.9459406 -0.996937E-08  0.620E-04    0.33      72.1  T
  15   -153.9459406 -0.135577E-08  0.228E-04    0.33     195.8  T
  16   -153.9459406 -0.227459E-09  0.929E-08    0.33  100000.0  T
  17   -153.9459406 -0.110845E-11  0.592E-07    0.33   75481.4  T
     SCC iter.                  ...        0 min,  0.007 sec
     gradient                   ...        0 min,  0.001 sec
 * total energy  :  -119.7004688 Eh     change       -0.2104615E+02 Eh
   gradient norm :    57.6806494 Eh/α   predicted    -0.1347988E+02 ( -35.95%)
   displ. norm   :     0.9459288 α      lambda       -0.4850784E+02
   maximum displ.:     0.5654044 α      in ANC's #3, #7, #2, ...

........................................................................
.............................. CYCLE   36 ..............................
........................................................................
   1   -121.1270093 -0.121127E+03  0.153E+01    2.39       0.0  T
   2   -125.6965391 -0.456953E+01  0.597E+00    6.52       1.0  T
   3   -126.1733200 -0.476781E+00  0.363E+00    3.91       1.0  T
   4   -126.1855852 -0.122652E-01  0.815E-01    3.87       1.0  T
   5   -126.1887908 -0.320558E-02  0.104E-01    3.99       1.0  T
   6   -126.1888092 -0.183875E-04  0.468E-02    4.01       1.0  T
   7   -126.1888208 -0.115988E-04  0.814E-03    4.06       5.5  T
   8   -126.1888211 -0.290656E-06  0.435E-03    4.05      10.3  T
   9   -126.1888216 -0.480053E-06  0.588E-05    4.05     760.1  T
  10   -126.1888216 -0.111299E-09  0.186E-05    4.05    2410.7  T
     SCC iter.                  ...        0 min,  0.004 sec
     gradient                   ...        0 min,  0.001 sec
 * total energy  :   -97.7383940 Eh     change        0.2196207E+02 Eh
   gradient norm :    60.0267057 Eh/α   predicted    -0.4595586E+02 (-309.25%)
   displ. norm   :     0.4272611 α      lambda       -0.2130387E+02
   maximum displ.:     0.3002937 α      in ANC's #9, #3, #2, ...

........................................................................
.............................. CYCLE   37 ..............................
........................................................................
   1   -147.6466224 -0.147647E+03  0.807E+00    4.74       0.0  T
   2   -148.3846676 -0.738045E+00  0.385E+00    2.75       1.0  T
   3   -148.4293859 -0.447183E-01  0.207E+00    2.81       1.0  T
   4   -148.4392521 -0.986619E-02  0.266E-01    2.13       1.0  T
   5   -148.4396332 -0.381151E-03  0.357E-02    1.99       1.3  T
   6   -148.4396396 -0.636634E-05  0.209E-02    1.99       2.1  T
   7   -148.4396457 -0.608586E-05  0.205E-03    1.98      21.8  T
   8   -148.4396457 -0.966074E-08  0.332E-04    1.98     134.5  T
   9   -148.4396457 -0.331045E-08  0.932E-06    1.98    4800.3  T
  10   -148.4396457 -0.383693E-11  0.698E-07    1.98   64079.7  T
     SCC iter.                  ...        0 min,  0.004 sec
     gradient                   ...        0 min,  0.001 sec
 * total energy  :  -114.5914298 Eh     change       -0.1685304E+02 Eh
   gradient norm :    65.8384678 Eh/α   predicted    -0.1259647E+02 ( -25.26%)
   displ. norm   :     0.9172063 α      lambda       -0.5064710E+02
   maximum displ.:     0.6362451 α      in ANC's #3, #2, #4, ...

........................................................................
.............................. CYCLE   38 ..............................
........................................................................
   1   -124.4771822 -0.124477E+03  0.206E+01    4.94       0.0  T
   2   -133.2319759 -0.875479E+01  0.574E+00   14.21       1.0  T
   3   -133.8715866 -0.639611E+00  0.311E+00   12.34       1.0  T
   4   -133.8905848 -0.189982E-01  0.832E-01   12.64       1.0  T
   5   -133.8946014 -0.401657E-02  0.429E-01   12.65       1.0  T
   6   -133.8953410 -0.739650E-03  0.102E-01   12.79       1.0  T
   7   -133.8954095 -0.684722E-04  0.109E-02   12.81       4.1  T
   8   -133.8954116 -0.208672E-05  0.112E-03   12.81      40.0  T
   9   -133.8954116  0.568434E-12  0.222E-04   12.81     201.1  T
  10   -133.8954116 -0.114812E-08  0.141E-05   12.81    3177.9  T
  11   -133.8954116 -0.244427E-11  0.547E-06   12.81    8176.2  T
     SCC iter.                  ...        0 min,  0.005 sec
     gradient                   ...        0 min,  0.001 sec
 * total energy  :   -92.4578578 Eh     change        0.2213357E+02 Eh
   gradient norm :   123.0981851 Eh/α   predicted    -0.4662742E+02 (-310.66%)
   displ. norm   :     0.4283969 α      lambda       -0.4179525E+02
   maximum displ.:     0.2562332 α      in ANC's #7, #3, #9, ...

........................................................................
.............................. CYCLE   39 ..............................
........................................................................
   1   -126.7865138 -0.126787E+03  0.118E+01    4.34       0.0  T
   2   -127.0700743 -0.283560E+00  0.645E+00    7.54       1.0  T
   3   -127.1268410 -0.567668E-01  0.914E-01    3.99       1.0  T
   4   -127.1279414 -0.110034E-02  0.432E-01    3.50       1.0  T
   5   -127.1280171 -0.757129E-04  0.164E-01    3.54       1.0  T
   6   -127.1282445 -0.227376E-03  0.535E-03    3.52       8.4  T
   7   -127.1282445 -0.327833E-07  0.104E-03    3.51      43.2  T
   8   -127.1282445 -0.137635E-08  0.465E-04    3.51      96.2  T
   9   -127.1282445 -0.107180E-08  0.122E-05    3.51    3655.8  T
  10   -127.1282445 -0.341061E-12  0.411E-06    3.51   10876.8  T
     SCC iter.                  ...        0 min,  0.004 sec
     gradient                   ...        0 min,  0.001 sec
 * total energy  :  -101.7928755 Eh     change       -0.9335018E+01 Eh
   gradient norm :    75.4190555 Eh/α   predicted    -0.2473284E+02 ( 164.95%)
   displ. norm   :     0.7509659 α      lambda       -0.4448615E+02
   maximum displ.:     0.4464670 α      in ANC's #2, #4, #3, ...

........................................................................
.............................. CYCLE   40 ..............................
........................................................................
   1   -136.0426115 -0.136043E+03  0.168E+01    1.43       0.0  T
   2   -143.0561764 -0.701356E+01  0.476E+00    1.80       1.0  T
   3   -143.4078222 -0.351646E+00  0.290E+00    2.04       1.0  T
   4   -143.4153436 -0.752137E-02  0.103E+00    2.03       1.0  T
   5   -143.4185351 -0.319153E-02  0.391E-01    2.28       1.0  T
   6   -143.4186159 -0.807977E-04  0.604E-02    2.33       1.0  T
   7   -143.4186136  0.234747E-05  0.295E-02    2.33       1.5  T
   8   -143.4186195 -0.592459E-05  0.290E-03    2.32      15.4  T
   9   -143.4186196 -0.576104E-07  0.405E-04    2.33     110.5  T
  10   -143.4186196 -0.987484E-09  0.854E-05    2.33     523.6  T
  11   -143.4186196 -0.281091E-10  0.138E-05    2.33    3241.3  T
     SCC iter.                  ...        0 min,  0.004 sec
     gradient                   ...        0 min,  0.001 sec
 * total energy  :  -114.5913952 Eh     change       -0.1279852E+02 Eh
   gradient norm :    79.1084106 Eh/α   predicted    -0.3478705E+02 ( 171.81%)
   displ. norm   :     0.3276301 α      lambda       -0.2066527E+02
   maximum displ.:     0.2115938 α      in ANC's #2, #3, #7, ...

........................................................................
.............................. CYCLE   41 ..............................
........................................................................
   1   -151.3979981 -0.151398E+03  0.113E+01    0.38       0.0  T
   2   -152.5571907 -0.115919E+01  0.348E+00    4.25       1.0  T
   3   -152.5832703 -0.260796E-01  0.196E+00    3.09       1.0  T
   4   -152.5527358  0.305345E-01  0.264E+00    1.76       1.0  T
   5   -151.8086605  0.744075E+00  0.910E+00    2.14       1.0  T
   6   -151.8146309 -0.597038E-02  0.910E+00    2.15       1.0  T
   7   -152.3933299 -0.578699E+00  0.457E+00    1.56       1.0  T
   8   -152.5960119 -0.202682E+00  0.115E+00    2.20       1.0  T
   9   -152.5977194 -0.170751E-02  0.856E-01    2.28       1.0  T
  10   -152.5981255 -0.406168E-03  0.203E-01    2.49       1.0  T
  11   -152.5982963 -0.170774E-03  0.127E-01    2.46       1.0  T
  12   -152.5983858 -0.895013E-04  0.596E-02    2.42       1.0  T
  13   -152.5984042 -0.183330E-04  0.310E-02    2.41       1.4  T
  14   -152.5984092 -0.504976E-05  0.159E-02    2.40       2.8  T
  15   -152.5984109 -0.168846E-05  0.443E-03    2.40      10.1  T
  16   -152.5984110 -0.140897E-06  0.191E-04    2.40     234.2  T
  17   -152.5984110 -0.146116E-09  0.710E-06    2.40    6300.0  T
     SCC iter.                  ...        0 min,  0.008 sec
     gradient                   ...        0 min,  0.001 sec
 * total energy  :  -124.1716073 Eh     change       -0.9580212E+01 Eh
   gradient norm :    35.4549361 Eh/α   predicted    -0.1144175E+02 (  19.43%)
   displ. norm   :     0.7545915 α      lambda       -0.1529801E+02
   maximum displ.:     0.4534077 α      in ANC's #5, #4, #1, ...

........................................................................
.............................. CYCLE   42 ..............................
........................................................................
   1   -142.2522644 -0.142252E+03  0.865E+00    6.71       0.0  T
   2   -143.2917364 -0.103947E+01  0.237E+00    4.78       1.0  T
   3   -143.3433852 -0.516487E-01  0.133E+00    3.52       1.0  T
   4   -143.3479511 -0.456596E-02  0.454E-01    2.49       1.0  T
   5   -143.3484054 -0.454294E-03  0.672E-02    2.48       1.0  T
   6   -143.3484290 -0.235895E-04  0.329E-02    2.41       1.4  T
   7   -143.3484370 -0.796416E-05  0.177E-03    2.45      25.3  T
   8   -143.3484370 -0.197431E-07  0.441E-04    2.45     101.5  T
   9   -143.3484370 -0.133585E-08  0.481E-06    2.45    9293.1  T
  10   -143.3484370 -0.369482E-12  0.718E-07    2.45   62285.3  T
     SCC iter.                  ...        0 min,  0.004 sec
     gradient                   ...        0 min,  0.001 sec
 * total energy  :  -102.0057018 Eh     change        0.2216591E+02 Eh
   gradient norm :    81.7479479 Eh/α   predicted    -0.1200441E+02 (-154.16%)
   displ. norm   :     0.4401376 α      lambda       -0.2950984E+02
   maximum displ.:     0.2806847 α      in ANC's #5, #4, #1, ...
 * RMSD in coord.:     0.1796625 α      energy gain  -0.6107343E+01 Eh

generating ANC from model Hessian ...
Using Lindh-Hessian (1995)
 Shifting diagonal of input Hessian by    0.0000000000000000     
 Lowest  eigenvalues of input Hessian
    0.000000    0.000000    0.000000    0.000000    0.000000    0.000000
    9.683824   16.866021   18.540031   23.407773   33.423309   72.394563
  142.871977  198.441683  229.948660
 Highest eigenvalues
   23.407773   33.423309   72.394563  142.871977  198.441683  229.948660


........................................................................
.............................. CYCLE   43 ..............................
[...]
  66   -134.2892559  0.421592E+00  0.631E+00    0.30       1.0  T
  67   -134.6558135 -0.366558E+00  0.347E+00    3.05       1.0  T
  68   -134.6853579 -0.295444E-01  0.206E+00    1.03       1.0  T
  69   -134.7110153 -0.256573E-01  0.778E-01    0.12       1.0  T
  70   -134.2893324  0.421683E+00  0.631E+00    0.30       1.0  T
  71   -134.6555982 -0.366266E+00  0.348E+00    3.06       1.0  T
  72   -134.6853570 -0.297588E-01  0.206E+00    1.03       1.0  T
  73   -134.7111513 -0.257942E-01  0.769E-01    0.12       1.0  T
  74   -134.2893607  0.421791E+00  0.631E+00    0.30       1.0  T
  75   -134.6554108 -0.366050E+00  0.349E+00    3.07       1.0  T
  76   -134.6853573 -0.299464E-01  0.206E+00    1.03       1.0  T
  77   -134.7112658 -0.259085E-01  0.763E-01    0.12       1.0  T
  78   -134.2893607  0.421905E+00  0.631E+00    0.30       1.0  T
  79   -134.6552441 -0.365883E+00  0.350E+00    3.08       1.0  T
  80   -134.6853585 -0.301144E-01  0.206E+00    1.03       1.0  T
  81   -134.7113634 -0.260049E-01  0.757E-01    0.12       1.0  T
  82   -134.2893400  0.422023E+00  0.631E+00    0.30       1.0  T
  83   -134.6550939 -0.365754E+00  0.350E+00    3.09       1.0  T
  84   -134.6853606 -0.302668E-01  0.206E+00    1.03       1.0  T
  85   -134.7114474 -0.260868E-01  0.751E-01    0.12       1.0  T
  86   -134.2893038  0.422144E+00  0.631E+00    0.30       1.0  T
  87   -134.6549570 -0.365653E+00  0.351E+00    3.10       1.0  T
  88   -134.6853634 -0.304064E-01  0.206E+00    1.03       1.0  T
  89   -134.7115208 -0.261574E-01  0.747E-01    0.12       1.0  T
  90   -134.2892576  0.422263E+00  0.631E+00    0.30       1.0  T
  91   -134.6548311 -0.365574E+00  0.351E+00    3.10       1.0  T
  92   -134.6853668 -0.305357E-01  0.206E+00    1.03       1.0  T
  93   -134.7115860 -0.262192E-01  0.743E-01    0.12       1.0  T
  94   -134.2892055  0.422381E+00  0.631E+00    0.30       1.0  T
  95   -134.6547144 -0.365509E+00  0.352E+00    3.11       1.0  T
  96   -134.6853707 -0.306563E-01  0.206E+00    1.03       1.0  T
  97   -134.7116442 -0.262735E-01  0.739E-01    0.12       1.0  T
  98   -134.2891494  0.422495E+00  0.631E+00    0.30       1.0  T
  99   -134.6546056 -0.365456E+00  0.352E+00    3.12       1.0  T
 100   -134.6853751 -0.307694E-01  0.206E+00    1.03       1.0  T
 101   -134.7116965 -0.263214E-01  0.736E-01    0.12       1.0  T
 102   -134.2890905  0.422606E+00  0.631E+00    0.30       1.0  T
 103   -134.6545038 -0.365413E+00  0.352E+00    3.12       1.0  T
 104   -134.6853798 -0.308760E-01  0.206E+00    1.03       1.0  T
 105   -134.7117438 -0.263640E-01  0.733E-01    0.12       1.0  T
 106   -134.2890303  0.422713E+00  0.631E+00    0.30       1.0  T
 107   -134.6544080 -0.365378E+00  0.353E+00    3.13       1.0  T
 108   -134.6853849 -0.309769E-01  0.206E+00    1.03       1.0  T
 109   -134.7117870 -0.264021E-01  0.730E-01    0.12       1.0  T
 110   -134.2889698  0.422817E+00  0.631E+00    0.30       1.0  T
 111   -134.6543177 -0.365348E+00  0.353E+00    3.13       1.0  T
 112   -134.6853902 -0.310726E-01  0.206E+00    1.03       1.0  T
 113   -134.7118265 -0.264363E-01  0.728E-01    0.12       1.0  T
 114   -134.2889093  0.422917E+00  0.631E+00    0.30       1.0  T
 115   -134.6542321 -0.365323E+00  0.354E+00    3.14       1.0  T
 116   -134.6853958 -0.311637E-01  0.206E+00    1.03       1.0  T
 117   -134.7118629 -0.264670E-01  0.725E-01    0.12       1.0  T
 118   -134.2888492  0.423014E+00  0.631E+00    0.31       1.0  T
 119   -134.6541509 -0.365302E+00  0.354E+00    3.14       1.0  T
 120   -134.6854016 -0.312506E-01  0.206E+00    1.03       1.0  T
 121   -134.7118963 -0.264948E-01  0.723E-01    0.12       1.0  T
 122   -134.2887898  0.423107E+00  0.631E+00    0.31       1.0  T
 123   -134.6540738 -0.365284E+00  0.354E+00    3.15       1.0  T
 124   -134.6854075 -0.313337E-01  0.206E+00    1.03       1.0  T
 125   -134.7119274 -0.265199E-01  0.721E-01    0.12       1.0  T
 126   -134.2887314  0.423196E+00  0.632E+00    0.31       1.0  T
 127   -134.6540002 -0.365269E+00  0.354E+00    3.15       1.0  T
 128   -134.6854135 -0.314133E-01  0.206E+00    1.03       1.0  T
 129   -134.7119562 -0.265427E-01  0.719E-01    0.12       1.0  T
 130   -134.2886741  0.423282E+00  0.632E+00    0.31       1.0  T
 131   -134.6539300 -0.365256E+00  0.355E+00    3.15       1.0  T
 132   -134.6854196 -0.314896E-01  0.206E+00    1.03       1.0  T
 133   -134.7119831 -0.265635E-01  0.718E-01    0.12       1.0  T
 134   -134.2886179  0.423365E+00  0.632E+00    0.31       1.0  T
 135   -134.6538628 -0.365245E+00  0.355E+00    3.16       1.0  T
 136   -134.6854258 -0.315630E-01  0.206E+00    1.03       1.0  T
 137   -134.7120081 -0.265823E-01  0.716E-01    0.12       1.0  T
 138   -134.2885630  0.423445E+00  0.632E+00    0.31       1.0  T
 139   -134.6537985 -0.365236E+00  0.355E+00    3.16       1.0  T
 140   -134.6854320 -0.316335E-01  0.206E+00    1.03       1.0  T
 141   -134.7120316 -0.265996E-01  0.715E-01    0.12       1.0  T
 142   -134.2885092  0.423522E+00  0.632E+00    0.31       1.0  T
 143   -134.6537368 -0.365228E+00  0.355E+00    3.16       1.0  T
 144   -134.6854383 -0.317015E-01  0.206E+00    1.03       1.0  T
 145   -134.7120536 -0.266153E-01  0.713E-01    0.12       1.0  T
 146   -134.2884568  0.423597E+00  0.632E+00    0.31       1.0  T
 147   -134.6536775 -0.365221E+00  0.356E+00    3.17       1.0  T
 148   -134.6854446 -0.317671E-01  0.205E+00    1.03       1.0  T
 149   -134.7120743 -0.266297E-01  0.712E-01    0.12       1.0  T
 150   -134.2884055  0.423669E+00  0.632E+00    0.31       1.0  T
 151   -134.6536206 -0.365215E+00  0.356E+00    3.17       1.0  T
 152   -134.6854509 -0.318303E-01  0.205E+00    1.03       1.0  T
 153   -134.7120937 -0.266428E-01  0.710E-01    0.12       1.0  T
 154   -134.2883555  0.423738E+00  0.632E+00    0.31       1.0  T
 155   -134.6535657 -0.365210E+00  0.356E+00    3.17       1.0  T
 156   -134.6854572 -0.318915E-01  0.205E+00    1.03       1.0  T
 157   -134.7121121 -0.266549E-01  0.709E-01    0.12       1.0  T
 158   -134.2883067  0.423805E+00  0.632E+00    0.31       1.0  T
 159   -134.6535129 -0.365206E+00  0.356E+00    3.18       1.0  T
 160   -134.6854635 -0.319506E-01  0.205E+00    1.02       1.0  T
 161   -134.7121294 -0.266660E-01  0.708E-01    0.12       1.0  T
 162   -134.2882591  0.423870E+00  0.632E+00    0.31       1.0  T
 163   -134.6534619 -0.365203E+00  0.356E+00    3.18       1.0  T
 164   -134.6854697 -0.320078E-01  0.205E+00    1.02       1.0  T
 165   -134.7121458 -0.266761E-01  0.707E-01    0.12       1.0  T
 166   -134.2882126  0.423933E+00  0.632E+00    0.31       1.0  T
 167   -134.6534127 -0.365200E+00  0.357E+00    3.18       1.0  T
 168   -134.6854760 -0.320632E-01  0.205E+00    1.02       1.0  T
 169   -134.7121614 -0.266854E-01  0.706E-01    0.12       1.0  T
 170   -134.2881673  0.423994E+00  0.632E+00    0.31       1.0  T
 171   -134.6533652 -0.365198E+00  0.357E+00    3.18       1.0  T
 172   -134.6854822 -0.321170E-01  0.205E+00    1.02       1.0  T
 173   -134.7121761 -0.266939E-01  0.705E-01    0.12       1.0  T
 174   -134.2881231  0.424053E+00  0.632E+00    0.31       1.0  T
 175   -134.6533192 -0.365196E+00  0.357E+00    3.19       1.0  T
 176   -134.6854883 -0.321691E-01  0.205E+00    1.02       1.0  T
 177   -134.7121901 -0.267018E-01  0.704E-01    0.12       1.0  T
 178   -134.2880799  0.424110E+00  0.632E+00    0.31       1.0  T
 179   -134.6532747 -0.365195E+00  0.357E+00    3.19       1.0  T
 180   -134.6854944 -0.322197E-01  0.205E+00    1.02       1.0  T
 181   -134.7122034 -0.267090E-01  0.703E-01    0.12       1.0  T
 182   -134.2880377  0.424166E+00  0.632E+00    0.31       1.0  T
 183   -134.6532316 -0.365194E+00  0.357E+00    3.19       1.0  T
 184   -134.6855005 -0.322689E-01  0.205E+00    1.02       1.0  T
 185   -134.7122161 -0.267156E-01  0.702E-01    0.12       1.0  T
 186   -134.2879966  0.424220E+00  0.632E+00    0.31       1.0  T
 187   -134.6531899 -0.365193E+00  0.357E+00    3.19       1.0  T
 188   -134.6855065 -0.323166E-01  0.205E+00    1.02       1.0  T
 189   -134.7122281 -0.267216E-01  0.702E-01    0.12       1.0  T
 190   -134.2879564  0.424272E+00  0.632E+00    0.32       1.0  T
 191   -134.6531494 -0.365193E+00  0.358E+00    3.20       1.0  T
 192   -134.6855125 -0.323631E-01  0.205E+00    1.02       1.0  T
 193   -134.7122397 -0.267272E-01  0.701E-01    0.12       1.0  T
 194   -134.2879171  0.424323E+00  0.632E+00    0.32       1.0  T
 195   -134.6531101 -0.365193E+00  0.358E+00    3.20       1.0  T
 196   -134.6855184 -0.324083E-01  0.205E+00    1.02       1.0  T
 197   -134.7122506 -0.267322E-01  0.700E-01    0.12       1.0  T
 198   -134.2878787  0.424372E+00  0.633E+00    0.32       1.0  T
 199   -134.6530719 -0.365193E+00  0.358E+00    3.20       1.0  T
 200   -134.6855242 -0.324523E-01  0.205E+00    1.02       1.0  T
 201   -134.7122611 -0.267369E-01  0.699E-01    0.12       1.0  T
 202   -134.2878412  0.424420E+00  0.633E+00    0.32       1.0  T
 203   -134.6530349 -0.365194E+00  0.358E+00    3.20       1.0  T
 204   -134.6855300 -0.324952E-01  0.205E+00    1.02       1.0  T
 205   -134.7122712 -0.267412E-01  0.699E-01    0.12       1.0  T
 206   -134.2878046  0.424467E+00  0.633E+00    0.32       1.0  T
 207   -134.6529988 -0.365194E+00  0.358E+00    3.21       1.0  T
 208   -134.6855358 -0.325369E-01  0.205E+00    1.02       1.0  T
 209   -134.7122808 -0.267450E-01  0.698E-01    0.12       1.0  T
 210   -134.2877687  0.424512E+00  0.633E+00    0.32       1.0  T
 211   -134.6529638 -0.365195E+00  0.358E+00    3.21       1.0  T
 212   -134.6855414 -0.325776E-01  0.205E+00    1.02       1.0  T
 213   -134.7122900 -0.267486E-01  0.698E-01    0.12       1.0  T
 214   -134.2877337  0.424556E+00  0.633E+00    0.32       1.0  T
 215   -134.6529297 -0.365196E+00  0.358E+00    3.21       1.0  T
 216   -134.6855470 -0.326173E-01  0.205E+00    1.02       1.0  T
 217   -134.7122988 -0.267518E-01  0.697E-01    0.12       1.0  T
 218   -134.2876994  0.424599E+00  0.633E+00    0.32       1.0  T
 219   -134.6528965 -0.365197E+00  0.359E+00    3.21       1.0  T
 220   -134.6855525 -0.326561E-01  0.205E+00    1.02       1.0  T
 221   -134.7123073 -0.267548E-01  0.696E-01    0.12       1.0  T
 222   -134.2876658  0.424641E+00  0.633E+00    0.32       1.0  T
 223   -134.6528641 -0.365198E+00  0.359E+00    3.21       1.0  T
 224   -134.6855580 -0.326939E-01  0.205E+00    1.02       1.0  T
 225   -134.7123154 -0.267574E-01  0.696E-01    0.12       1.0  T
 226   -134.2876330  0.424682E+00  0.633E+00    0.32       1.0  T
 227   -134.6528326 -0.365200E+00  0.359E+00    3.21       1.0  T
 228   -134.6855634 -0.327308E-01  0.205E+00    1.02       1.0  T
 229   -134.7123232 -0.267598E-01  0.695E-01    0.12       1.0  T
 230   -134.2876008  0.424722E+00  0.633E+00    0.32       1.0  T
 231   -134.6528019 -0.365201E+00  0.359E+00    3.22       1.0  T
 232   -134.6855688 -0.327669E-01  0.205E+00    1.02       1.0  T
 233   -134.7123307 -0.267620E-01  0.695E-01    0.12       1.0  T
 234   -134.2875693  0.424761E+00  0.633E+00    0.32       1.0  T
 235   -134.6527719 -0.365203E+00  0.359E+00    3.22       1.0  T
 236   -134.6855740 -0.328021E-01  0.205E+00    1.02       1.0  T
 237   -134.7123380 -0.267639E-01  0.694E-01    0.12       1.0  T
 238   -134.2875384  0.424800E+00  0.633E+00    0.32       1.0  T
 239   -134.6527427 -0.365204E+00  0.359E+00    3.22       1.0  T
 240   -134.6855793 -0.328366E-01  0.205E+00    1.01       1.0  T
 241   -134.7123449 -0.267657E-01  0.694E-01    0.12       1.0  T
 242   -134.2875082  0.424837E+00  0.633E+00    0.32       1.0  T
 243   -134.6527141 -0.365206E+00  0.359E+00    3.22       1.0  T
 244   -134.6855844 -0.328703E-01  0.205E+00    1.01       1.0  T
 245   -134.7123516 -0.267672E-01  0.693E-01    0.12       1.0  T
 246   -134.2874786  0.424873E+00  0.633E+00    0.32       1.0  T
 247   -134.6526863 -0.365208E+00  0.359E+00    3.22       1.0  T
 248   -134.6855895 -0.329032E-01  0.205E+00    1.01       1.0  T
 249   -134.7123580 -0.267686E-01  0.693E-01    0.12       1.0  T
 250   -134.2874495  0.424909E+00  0.633E+00    0.32       1.0  T
     SCC iter.                  ...        0 min,  0.217 sec
     gradient                   ...        0 min,  0.001 sec
================
 final structure:
================
5
 xtb: 6.4.1-1.fc34.fc34
Cr        0.48028725377749    0.32716919378518    0.12128381663197
O         1.51332165941332    1.03448648135578   -0.78955553051410
O        -0.57831537187616    1.32157128739802    0.65757817076212
F        -0.29602430869141   -0.85637252313759   -0.76598418135575
F         1.28459076737678   -0.35182443940140    1.41848772447575

 Bond Distances (Angstroems)
 ---------------------------
Cr1-O2=1.5483        Cr1-O3=1.5483        Cr1-F4=1.6705        Cr1-F5=1.6705        O2-Cr1=1.5483        O3-Cr1=1.5483        
F4-Cr1=1.6705        F5-Cr1=1.6705        
 Cr O  Rav=1.5483 sigma=0.0000  Rmin=1.5483  Rmax=1.5483     2
 Cr F  Rav=1.6705 sigma=0.0000  Rmin=1.6705  Rmax=1.6705     2

 selected bond angles (degree)
 --------------------
O3-Cr1-O2=111.50               F4-Cr1-O2=108.74               F4-Cr1-O3=108.74               F5-Cr1-O2=108.74               
F5-Cr1-O3=108.74               F5-Cr1-F4=110.38               

 selected dihedral angles (degree)
 ---------------------------------

           -------------------------------------------------
          |                Final Singlepoint                |
           -------------------------------------------------

          ...................................................
          :                      SETUP                      :
          :.................................................:
          :  # basis functions                  26          :
          :  # atomic orbitals                  25          :
          :  # shells                           11          :
          :  # electrons                        32          :
          :  # halogen bonds                     0          :
          :  max. iterations                   250          :
          :  Hamiltonian                  GFN1-xTB          :
          :  restarted?                      false          :
          :  GBSA solvation                  false          :
          :  PC potential                    false          :
          :  electronic temp.          300.0000000     K    :
          :  accuracy                    1.0000000          :
          :  -> integral cutoff          0.2500000E+02      :
          :  -> integral neglect         0.1000000E-07      :
          :  -> SCF convergence          0.1000000E-05 Eh   :
          :  -> wf. convergence          0.2000000E-04 e    :
          :  Broyden damping             0.4000000          :
          ...................................................

 iter      E             dE          RMSdq      gap      omega  full diag
   1    -54.8289142 -0.548289E+02  0.254E+01    3.24       0.0  T
   2    -54.9858570 -0.156943E+00  0.161E+01    7.92       1.0  T
   3    -54.5423510  0.443506E+00  0.110E+01    0.03       1.0  T
   4    -55.7216303 -0.117928E+01  0.304E+00    3.58       1.0  T
   5    -55.8308619 -0.109232E+00  0.110E+00    2.15       1.0  T
   6    -55.8561482 -0.252863E-01  0.360E-01    2.37       1.0  T
   7    -55.8469144  0.923383E-02  0.800E-01    2.74       1.0  T
   8    -55.8582594 -0.113450E-01  0.146E-01    2.52       1.0  T
   9    -55.8586585 -0.399078E-03  0.304E-02    2.46       1.5  T
  10    -55.8586748 -0.162710E-04  0.186E-03    2.47      24.0  T
  11    -55.8586741  0.679645E-06  0.638E-03    2.47       7.0  T
  12    -55.8586748 -0.709366E-06  0.153E-04    2.47     292.3  T
  13    -55.8586748 -0.328939E-09  0.738E-05    2.47     605.8  T

   *** convergence criteria satisfied after 13 iterations ***

         #    Occupation            Energy/Eh            Energy/eV
      -------------------------------------------------------------
         1        2.0000          -14.0181947            -381.4545
       ...           ...                  ...                  ...
        10        2.0000           -1.6281962             -44.3055
        11        2.0000           -1.6265528             -44.2608
        12        2.0000           -1.5207922             -41.3829
        13        2.0000           -1.5067304             -41.0002
        14        2.0000           -1.4888193             -40.5128
        15        2.0000           -1.3966701             -38.0053
        16        2.0000           -1.3065115             -35.5520 (HOMO)
        17                         -1.2158269             -33.0843 (LUMO)
        18                         -1.0088087             -27.4511
        19                         -0.9462522             -25.7488
Note: The following floating-point exceptions are signalling: IEEE_INVALID_FLAG IEEE_UNDERFLOW_FLAG IEEE_DENORMAL
ERROR STOP 

Error termination. Backtrace:
#0  0x7fae995ce742 in ???
#1  0x7fae995cf209 in ???
#2  0x7fae995d0627 in ???
#3  0x5598cdf0b479 in ???
#4  0x5598cdf0b5f2 in ???
#5  0x5598ce0752b4 in ???
#6  0x5598cdedf0be in ???
#7  0x7fae9925eb74 in ???
#8  0x5598cdedf28d in ???
#9  0xffffffffffffffff in ???
abnormal termination of xtb
        20                         -0.9430649             -25.6621
        21                         -0.9268160             -25.2199
       ...                                ...                  ...
        25                          0.6416457              17.4601
      -------------------------------------------------------------
                  HL-Gap            0.0906846 Eh            2.4677 eV
             Fermi-level           -1.2611692 Eh          -34.3182 eV

 SCC (total)                   0 d,  0 h,  0 min,  0.006 sec
 SCC setup                      ...        0 min,  0.000 sec (  0.591%)
 Dispersion                     ...        0 min,  0.000 sec (  0.201%)
 classical contributions        ...        0 min,  0.000 sec (  0.080%)
 integral evaluation            ...        0 min,  0.000 sec (  6.085%)
 iterations                     ...        0 min,  0.005 sec ( 81.329%)
 molecular gradient             ...        0 min,  0.001 sec ( 10.203%)
 printout                       ...        0 min,  0.000 sec (  1.421%)

         :::::::::::::::::::::::::::::::::::::::::::::::::::::
         ::                     SUMMARY                     ::
         :::::::::::::::::::::::::::::::::::::::::::::::::::::
         :: total energy             -55.777253323467 Eh    ::
         :: gradient norm              9.249258554635 Eh/a0 ::
         :: HOMO-LUMO gap              2.467653748344 eV    ::
         ::.................................................::
         :: SCC energy               -55.858674783236 Eh    ::
         :: -> electrostatic         -45.062085458364 Eh    ::
         :: repulsion energy           0.082592073726 Eh    ::
         :: dispersion energy         -0.001170613957 Eh    ::
         :: halogen bond corr.         0.000000000000 Eh    ::
         :: add. restraining           0.000000000000 Eh    ::
         :: total charge              -0.000000000000 e     ::
         :::::::::::::::::::::::::::::::::::::::::::::::::::::


last geometry written to: xtblast.xyz

########################################################################
[ERROR] Program stopped due to fatal error
-8- Geometry optimization failed
-7- xtb_geoopt: Trying to recover from failed geometry optimization
-6- xtb_geoopt: Geometry optimization did not converge
-5- optimizer_ancopt: Could not relax structure
-4- optimizer_relax: SCF not converged, aborting...
-3- xtb_calculator_singlepoint: Electronic structure method terminated
-2- scf: Self consistent charge iterator did not converge
-1- restart_readRestart: Version number missmatch in restart file.
########################################################################
