
    -----------------------------------------------------------------------
          Psi4: An Open-Source Ab Initio Electronic Structure Package
                               Psi4 1.3.2 release

                         Git: Rev {} zzzzzzz 


    R. M. Parrish, L. A. Burns, D. G. A. Smith, A. C. Simmonett,
    A. E. DePrince III, E. G. Hohenstein, U. Bozkaya, A. Yu. Sokolov,
    R. Di Remigio, R. M. Richard, J. F. Gonthier, A. M. James,
    H. R. McAlexander, A. Kumar, M. Saitow, X. Wang, B. P. Pritchard,
    P. Verma, H. F. Schaefer III, K. Patkowski, R. A. King, E. F. Valeev,
    F. A. Evangelista, J. M. Turney, T. D. Crawford, and C. D. Sherrill,
    J. Chem. Theory Comput. 13(7) pp 3185--3197 (2017).
    (doi: 10.1021/acs.jctc.7b00174)


                         Additional Contributions by
    P. Kraus, H. Kruse, M. H. Lechner, M. C. Schieber, R. A. Shaw,
    A. Alenaizan, R. Galvelis, Z. L. Glick, S. Lehtola, and J. P. Misiewicz

    -----------------------------------------------------------------------


    Psi4 started on: Saturday, 10 July 2021 02:59PM

    Process ID: 1712950
    Host:       thinkpad
    PSIDATADIR: /usr/share/psi4
    Memory:     500.0 MiB
    Threads:    4
    
  ==> Input File <==

--------------------------------------------------------------------------
memory 8 gb

molecule {
symmetry c1
Cr        0.48028725377749    0.32716919378518    0.12128381663197
O         1.51332165941332    1.03448648135578   -0.78955553051410
O        -0.57831537187616    1.32157128739802    0.65757817076212
F        -0.29602430869141   -0.85637252313759   -0.76598418135575
F         1.28459076737678   -0.35182443940140    1.41848772447575
}

set basis def2-QZVP
set geom_maxiter 250

# Use a (75,302) quadrature grid
set dft_radial_points 75
set dft_spherical_points 302

# Very tight geometry optimization
set g_convergence gau_verytight
# Increase allowed number of geometry optimization steps
set geom_maxiter 250

# Use the Hueckel type guess
set guess huckel

my_dft = {
    "name": "my lda",
    "x_functionals": {"lda_x": {}},
    "c_functionals": {"lda_c_pw": {}}
}
optimize('scf', dft_functional=my_dft)
--------------------------------------------------------------------------

  Memory set to   7.451 GiB by Python driver.
gradient() will perform analytic gradient computation.

*** tstart() called on thinkpad
*** at Sat Jul 10 14:59:19 2021

   => Loading Basis Set <=

    Name: DEF2-QZVP
    Role: ORBITAL
    Keyword: BASIS
    atoms 1   entry CR         line  1332 file /usr/share/psi4/basis/def2-qzvp.gbs 
    atoms 2-3 entry O          line   290 file /usr/share/psi4/basis/def2-qzvp.gbs 
    atoms 4-5 entry F          line   338 file /usr/share/psi4/basis/def2-qzvp.gbs 


         ---------------------------------------------------------
                                   SCF
               by Justin Turney, Rob Parrish, Andy Simmonett
                          and Daniel G. A. Smith
                              RKS Reference
                        4 Threads,   7629 MiB Core
         ---------------------------------------------------------

  ==> Geometry <==

    Molecular point group: c1
    Full point group: C1

    Geometry (in Angstrom), charge = 0, multiplicity = 1:

       Center              X                  Y                   Z               Mass       
    ------------   -----------------  -----------------  -----------------  -----------------
         CR          -0.001007494106     0.066977222278    -0.014740872913    51.940506230000
         O            1.032026911530     0.774294509849    -0.925580220059    15.994914619570
         O           -1.059610119760     1.061379315891     0.521553481217    15.994914619570
         F           -0.777319056575    -1.116564494645    -0.902008870901    18.998403162730
         F            0.803296019493    -0.612016410908     1.282463034931    18.998403162730

  Running in c1 symmetry.

  Rotational constants: A =      0.15233  B =      0.13609  C =      0.12992 [cm^-1]
  Rotational constants: A =   4566.71939  B =   4079.72696  C =   3895.02954 [MHz]
  Nuclear repulsion =  355.181605515257786

  Charge       = 0
  Multiplicity = 1
  Electrons    = 58
  Nalpha       = 29
  Nbeta        = 29

  ==> Algorithm <==

  SCF Algorithm Type is DF.
  DIIS enabled.
  MOM disabled.
  Fractional occupation disabled.
  Guess Type is HUCKEL.
  Energy threshold   = 1.00e-08
  Density threshold  = 1.00e-08
  Integral threshold = 0.00e+00

  ==> Primary Basis <==

  Basis Set: DEF2-QZVP
    Blend: DEF2-QZVP
    Number of shells: 94
    Number of basis function: 312
    Number of Cartesian functions: 392
    Spherical Harmonics?: true
    Max angular momentum: 4

  ==> DFT Potential <==

   => Composite Functional: MY LDA <= 

    Slater exchange
    Perdew & Wang
    P. A. M. Dirac, Math. Proc. Cambridge Philos. Soc. 26, 376 (1930)
    F. Bloch, Z. Phys. 57, 545 (1929)
    J. P. Perdew and Y. Wang, Phys. Rev. B 45, 13244 (1992)

    Deriv               =              1
    GGA                 =          FALSE
    Meta                =          FALSE

    Exchange Hybrid     =          FALSE
    MP2 Hybrid          =          FALSE

   => Exchange Functionals <=

    1.0000         XC_lda_x

   => Correlation Functionals <=

    1.0000      XC_lda_c_pw

   => Molecular Quadrature <=

    Radial Scheme          =       TREUTLER
    Pruning Scheme         =           FLAT
    Nuclear Scheme         =       TREUTLER

    BS radius alpha        =              1
    Pruning alpha          =              1
    Radial Points          =             75
    Spherical Points       =            302
    Total Points           =         113250
    Total Blocks           =            920
    Max Points             =            256
    Max Functions          =            294

   => Loading Basis Set <=

    Name: (DEF2-QZVP AUX)
    Role: JKFIT
    Keyword: DF_BASIS_SCF
    atoms 1   entry CR         line  1731 file /usr/share/psi4/basis/def2-qzvp-jkfit.gbs 
    atoms 2-3 entry O          line   323 file /usr/share/psi4/basis/def2-qzvp-jkfit.gbs 
    atoms 4-5 entry F          line   383 file /usr/share/psi4/basis/def2-qzvp-jkfit.gbs 

  ==> Pre-Iterations <==

   -------------------------------------------------------
    Irrep   Nso     Nmo     Nalpha   Nbeta   Ndocc  Nsocc
   -------------------------------------------------------
     A        312     312       0       0       0       0
   -------------------------------------------------------
    Total     312     312      29      29      29       0
   -------------------------------------------------------

  ==> Integral Setup <==

  DFHelper Memory: AOs need 0.425 GiB; user supplied 5.426 GiB. Using in-core AOs.

  ==> MemDFJK: Density-Fitted J/K Matrices <==

    J tasked:                   Yes
    K tasked:                    No
    wK tasked:                   No
    OpenMP threads:               4
    Memory [MiB]:              5556
    Algorithm:                 Core
    Schwarz Cutoff:           1E-12
    Mask sparsity (%):       5.6932
    Fitting Condition:        1E-10

   => Auxiliary Basis Set <=

  Basis Set: (DEF2-QZVP AUX)
    Blend: DEF2-QZVP-JKFIT
    Number of shells: 158
    Number of basis function: 572
    Number of Cartesian functions: 749
    Spherical Harmonics?: true
    Max angular momentum: 6

  Cached 100.0% of DFT collocation blocks in 0.162 [GiB].

  Minimum eigenvalue in the overlap matrix is 3.5411475464E-04.
  Using Symmetric Orthogonalization.

  SCF Guess: Huckel guess via on-the-fly atomic UHF (doi:10.1021/acs.jctc.8b01089).

  ==> Iterations <==

                           Total Energy        Delta E     RMS |[F,P]|

   @DF-RKS iter   1: -1389.39855122072822   -1.38940e+03   8.20934e-03 DIIS
   @DF-RKS iter   2: -1371.36671857617193    1.80318e+01   2.53011e-02 DIIS
   @DF-RKS iter   3: -1388.99386305967846   -1.76271e+01   6.53640e-03 DIIS
   @DF-RKS iter   4: -1384.98914579392363    4.00472e+00   1.39269e-02 DIIS
   @DF-RKS iter   5: -1390.00678212292291   -5.01764e+00   3.99123e-03 DIIS
   @DF-RKS iter   6: -1390.32943078566382   -3.22649e-01   1.98048e-03 DIIS
   @DF-RKS iter   7: -1390.40866890166762   -7.92381e-02   1.06625e-03 DIIS
   @DF-RKS iter   8: -1390.42868682915696   -2.00179e-02   5.29841e-04 DIIS
   @DF-RKS iter   9: -1390.43706829665894   -8.38147e-03   1.68324e-04 DIIS
   @DF-RKS iter  10: -1390.43779704699364   -7.28750e-04   4.93857e-05 DIIS
   @DF-RKS iter  11: -1390.43786124217695   -6.41952e-05   7.90810e-06 DIIS
   @DF-RKS iter  12: -1390.43785979923973    1.44294e-06   9.60659e-06 DIIS
   @DF-RKS iter  13: -1390.43786299960038   -3.20036e-06   2.81248e-06 DIIS
   @DF-RKS iter  14: -1390.43786320206868   -2.02468e-07   2.84029e-07 DIIS
   @DF-RKS iter  15: -1390.43786320394543   -1.87674e-09   7.69654e-08 DIIS
   @DF-RKS iter  16: -1390.43786320405707   -1.11640e-10   4.36524e-08 DIIS
   @DF-RKS iter  17: -1390.43786320410982   -5.27507e-11   2.63097e-09 DIIS
  Energy and wave function converged.


  ==> Post-Iterations <==

    Orbital Energies [Eh]
    ---------------------

    Doubly Occupied:                                                      

       1A   -214.156113     2A    -24.411801     3A    -24.147142  
       4A    -24.147142     5A    -20.823507     6A    -20.822889  
       7A    -20.818579     8A    -18.701043     9A    -18.701043  
      10A     -2.889215    11A     -1.897367    12A     -1.897240  
      13A     -1.893810    14A     -1.105091    15A     -1.099274  
      16A     -0.897214    17A     -0.884553    18A     -0.491655  
      19A     -0.486069    20A     -0.468945    21A     -0.468028  
      22A     -0.463726    23A     -0.426986    24A     -0.423215  
      25A     -0.401859    26A     -0.380666    27A     -0.371110  
      28A     -0.369432    29A     -0.328396  

    Virtual:                                                              

      30A     -0.219772    31A     -0.201861    32A     -0.173917  
      33A     -0.136207    34A     -0.120258    35A     -0.021672  
      36A      0.021855    37A      0.022349    38A      0.022739  
      39A      0.102357    40A      0.112993    41A      0.115053  
      42A      0.115713    43A      0.117213    44A      0.117521  
      45A      0.146057    46A      0.151457    47A      0.156713  
      48A      0.290511    49A      0.303841    50A      0.322806  
      51A      0.334068    52A      0.334096    53A      0.344641  
      54A      0.358112    55A      0.367166    56A      0.374627  
      57A      0.382282    58A      0.398560    59A      0.435860  
      60A      0.451186    61A      0.463149    62A      0.463808  
      63A      0.467294    64A      0.467363    65A      0.476000  
      66A      0.493277    67A      0.513744    68A      0.517375  
      69A      0.849984    70A      0.854368    71A      0.923254  
      72A      0.924309    73A      0.935608    74A      0.973012  
      75A      0.977708    76A      1.059654    77A      1.071153  
      78A      1.071436    79A      1.075344    80A      1.085359  
      81A      1.130124    82A      1.161556    83A      1.213256  
      84A      1.227911    85A      1.275119    86A      1.275166  
      87A      1.293886    88A      1.295829    89A      1.316288  
      90A      1.318147    91A      1.320165    92A      1.320437  
      93A      1.343691    94A      1.407757    95A      1.421760  
      96A      1.452787    97A      1.461486    98A      1.488184  
      99A      1.534009   100A      1.537850   101A      1.584700  
     102A      1.605972   103A      1.609178   104A      1.646730  
     105A      1.658097   106A      1.682458   107A      1.684938  
     108A      1.705982   109A      1.807810   110A      1.835652  
     111A      1.878653   112A      2.084755   113A      2.103307  
     114A      2.143380   115A      2.164320   116A      2.256370  
     117A      2.446184   118A      2.471096   119A      2.745979  
     120A      2.805077   121A      2.848347   122A      2.877844  
     123A      2.898677   124A      2.946874   125A      2.984624  
     126A      3.026112   127A      3.078957   128A      3.086394  
     129A      3.113900   130A      3.142800   131A      3.164662  
     132A      3.248244   133A      3.279418   134A      3.280683  
     135A      3.507589   136A      3.519305   137A      3.570621  
     138A      3.604414   139A      3.650909   140A      3.670258  
     141A      3.728266   142A      3.750438   143A      3.772935  
     144A      3.782076   145A      3.864884   146A      3.865393  
     147A      3.921728   148A      3.963173   149A      3.984152  
     150A      3.985649   151A      3.997246   152A      4.031279  
     153A      4.070277   154A      4.077546   155A      4.092608  
     156A      4.116413   157A      4.162400   158A      4.183752  
     159A      4.229686   160A      4.233307   161A      4.255987  
     162A      4.270491   163A      4.339546   164A      4.342565  
     165A      4.360011   166A      4.502970   167A      4.626495  
     168A      4.640097   169A      4.716397   170A      4.781909  
     171A      4.809284   172A      4.840351   173A      4.888309  
     174A      4.892701   175A      4.937495   176A      4.952265  
     177A      4.959869   178A      4.960138   179A      4.967024  
     180A      5.001402   181A      5.052210   182A      5.183758  
     183A      5.220441   184A      5.239873   185A      5.276157  
     186A      5.329184   187A      5.404701   188A      5.611885  
     189A      5.623967   190A      5.709526   191A      5.827266  
     192A      5.877865   193A      5.987025   194A      6.018614  
     195A      6.053354   196A      6.140801   197A      6.218477  
     198A      6.241439   199A      6.253745   200A      6.268713  
     201A      6.425683   202A      6.487567   203A      6.708699  
     204A      6.932900   205A      6.970497   206A      8.647154  
     207A      8.649887   208A      8.658436   209A      8.658607  
     210A      8.658702   211A      8.660253   212A      8.664589  
     213A      8.679461   214A      8.697093   215A      8.726762  
     216A      8.754341   217A      8.763273   218A      8.925749  
     219A      8.935181   220A      9.001951   221A      9.030348  
     222A      9.032064   223A      9.124980   224A      9.174766  
     225A     10.622187   226A     10.659798   227A     10.692867  
     228A     10.697257   229A     10.736193   230A     10.754790  
     231A     10.755456   232A     10.782721   233A     10.820146  
     234A     10.840694   235A     10.897640   236A     10.907441  
     237A     10.953139   238A     10.982997   239A     11.023561  
     240A     11.168719   241A     11.176606   242A     11.181966  
     243A     11.181969   244A     11.192869   245A     11.192997  
     246A     11.193160   247A     11.193411   248A     11.194182  
     249A     11.196834   250A     11.202770   251A     11.203203  
     252A     11.235947   253A     11.254932   254A     11.261833  
     255A     11.318967   256A     11.384710   257A     11.443066  
     258A     11.454732   259A     11.507694   260A     11.614749  
     261A     11.626243   262A     11.713082   263A     11.739768  
     264A     11.749499   265A     11.764550   266A     11.783899  
     267A     11.829255   268A     11.982808   269A     11.991510  
     270A     12.037602   271A     12.109721   272A     12.349978  
     273A     12.549164   274A     13.410086   275A     13.542092  
     276A     14.311071   277A     14.316546   278A     14.329650  
     279A     14.330480   280A     14.399371   281A     14.401690  
     282A     14.411921   283A     14.455218   284A     14.588540  
     285A     14.588743   286A     14.592298   287A     14.621477  
     288A     14.627324   289A     14.681156   290A     15.282623  
     291A     15.316854   292A     15.516946   293A     15.545111  
     294A     15.561915   295A     15.607552   296A     15.779912  
     297A     15.846562   298A     15.879170   299A     15.891456  
     300A     16.295083   301A     16.303138   302A     29.274473  
     303A     47.150708   304A     47.363665   305A     53.813311  
     306A     53.917663   307A     97.915172   308A    252.102118  
     309A    252.342610   310A    284.686766   311A    284.816075  
     312A    622.657079  

    Final Occupation by Irrep:
              A 
    DOCC [    29 ]

  @DF-RKS Final Energy: -1390.43786320410982

   => Energetics <=

    Nuclear Repulsion Energy =            355.1816055152577860
    One-Electron Energy =               -2626.9221011071595058
    Two-Electron Energy =                 963.1657904697057120
    DFT Exchange-Correlation Energy =     -81.8631580819137099
    Empirical Dispersion Energy =           0.0000000000000000
    VV10 Nonlocal Energy =                  0.0000000000000000
    Total Energy =                      -1390.4378632041098172

Computation Completed


Properties will be evaluated at   0.000000,   0.000000,   0.000000 [a0]

Properties computed using the SCF density matrix

  Nuclear Dipole Moment: [e a0]
     X:    -0.0209      Y:     1.3901      Z:    -0.3060

  Electronic Dipole Moment: [e a0]
     X:     0.0230      Y:    -1.5282      Z:     0.3364

  Dipole Moment: [e a0]
     X:     0.0021      Y:    -0.1381      Z:     0.0304     Total:     0.1414

  Dipole Moment: [D]
     X:     0.0053      Y:    -0.3510      Z:     0.0773     Total:     0.3595


*** tstop() called on thinkpad at Sat Jul 10 14:59:34 2021
Module time:
	user time   =      40.38 seconds =       0.67 minutes
	system time =       0.53 seconds =       0.01 minutes
	total time  =         15 seconds =       0.25 minutes
Total time:
	user time   =      40.38 seconds =       0.67 minutes
	system time =       0.53 seconds =       0.01 minutes
	total time  =         15 seconds =       0.25 minutes

*** tstart() called on thinkpad
*** at Sat Jul 10 14:59:34 2021


         ------------------------------------------------------------
                                   SCF GRAD                          
                          Rob Parrish, Justin Turney,                
                       Andy Simmonett, and Alex Sokolov              
         ------------------------------------------------------------

  ==> Geometry <==

    Molecular point group: c1
    Full point group: C1

    Geometry (in Angstrom), charge = 0, multiplicity = 1:

       Center              X                  Y                   Z               Mass       
    ------------   -----------------  -----------------  -----------------  -----------------
         CR          -0.001007494106     0.066977222278    -0.014740872913    51.940506230000
         O            1.032026911530     0.774294509849    -0.925580220059    15.994914619570
         O           -1.059610119760     1.061379315891     0.521553481217    15.994914619570
         F           -0.777319056575    -1.116564494645    -0.902008870901    18.998403162730
         F            0.803296019493    -0.612016410908     1.282463034931    18.998403162730

  Nuclear repulsion =  355.181605515257786

  ==> Basis Set <==

  Basis Set: DEF2-QZVP
    Blend: DEF2-QZVP
    Number of shells: 94
    Number of basis function: 312
    Number of Cartesian functions: 392
    Spherical Harmonics?: true
    Max angular momentum: 4

  ==> DFJKGrad: Density-Fitted SCF Gradients <==

    Gradient:                    1
    J tasked:                  Yes
    K tasked:                   No
    wK tasked:                  No
    OpenMP threads:              4
    Integrals threads:           4
    Memory [MiB]:             5722
    Schwarz Cutoff:          0E+00
    Fitting Condition:       1E-10

   => Auxiliary Basis Set <=

  Basis Set: (DEF2-QZVP AUX)
    Blend: DEF2-QZVP-JKFIT
    Number of shells: 158
    Number of basis function: 572
    Number of Cartesian functions: 749
    Spherical Harmonics?: true
    Max angular momentum: 6

  ==> DFT Potential <==

   => Composite Functional: MY LDA <= 

    Slater exchange
    Perdew & Wang
    P. A. M. Dirac, Math. Proc. Cambridge Philos. Soc. 26, 376 (1930)
    F. Bloch, Z. Phys. 57, 545 (1929)
    J. P. Perdew and Y. Wang, Phys. Rev. B 45, 13244 (1992)

    Deriv               =              1
    GGA                 =          FALSE
    Meta                =          FALSE

    Exchange Hybrid     =          FALSE
    MP2 Hybrid          =          FALSE

   => Exchange Functionals <=

    1.0000         XC_lda_x

   => Correlation Functionals <=

    1.0000      XC_lda_c_pw

   => Molecular Quadrature <=

    Radial Scheme          =       TREUTLER
    Pruning Scheme         =           FLAT
    Nuclear Scheme         =       TREUTLER

    BS radius alpha        =              1
    Pruning alpha          =              1
    Radial Points          =             75
    Spherical Points       =            302
    Total Points           =         113250
    Total Blocks           =            920
    Max Points             =            256
    Max Functions          =            294


  -Total Gradient:
     Atom            X                  Y                   Z
    ------   -----------------  -----------------  -----------------
       1       -0.000021181848     0.001384968180    -0.000304534717
       2       -0.002631671856    -0.010040759495     0.004223377388
       3        0.002945003477    -0.010805778396     0.000364914073
       4        0.007569322503     0.012179054050     0.008524054023
       5       -0.007861069266     0.007253603034    -0.012801431686


*** tstop() called on thinkpad at Sat Jul 10 14:59:40 2021
Module time:
	user time   =      20.45 seconds =       0.34 minutes
	system time =       0.30 seconds =       0.00 minutes
	total time  =          6 seconds =       0.10 minutes
Total time:
	user time   =      60.83 seconds =       1.01 minutes
	system time =       0.83 seconds =       0.01 minutes
	total time  =         21 seconds =       0.35 minutes

			-----------------------------------------
			 OPTKING 2.0: for geometry optimizations 
			  - R.A. King,  Bethel University        
			-----------------------------------------

	Internal coordinates to be generated automatically.
	Detected frag 1 with atoms:  1 2 3 4 5
	---Fragment 1 Bond Connectivity---
	 1 : 2 3 4 5
	 2 : 1
	 3 : 1
	 4 : 1
	 5 : 1

	---Fragment 1 Geometry and Gradient---
	 CR         -0.0019038879        0.1265686067       -0.0278562127
	 O           1.9502482169        1.4632045641       -1.7490931231
	 O          -2.0023729261        2.0057162223        0.9855932393
	 F          -1.4689201290       -2.1100010963       -1.7045497287
	 F           1.5180094745       -1.1565434009        2.4235039020
	            -0.0000211818        0.0013849682       -0.0003045347
	            -0.0026316719       -0.0100407595        0.0042233774
	             0.0029450035       -0.0108057784        0.0003649141
	             0.0075693225        0.0121790541        0.0085240540
	            -0.0078610693        0.0072536030       -0.0128014317

	Previous optimization step data not found.  Starting new optimization.

	---Fragment 1 Intrafragment Coordinates---
	 - Coordinate -           - BOHR/RAD -       - ANG/DEG -
	 R(1,2)           =         2.925773	       1.548253
	 R(1,3)           =         2.925774	       1.548253
	 R(1,4)           =         3.156847	       1.670531
	 R(1,5)           =         3.156846	       1.670531
	 B(2,1,3)         =         1.946113	     111.504060
	 B(2,1,4)         =         1.897868	     108.739823
	 B(2,1,5)         =         1.897867	     108.739770
	 B(3,1,4)         =         1.897872	     108.740061
	 B(3,1,5)         =         1.897872	     108.740055
	 B(4,1,5)         =         1.926457	     110.377858

	Current energy   :     -1390.4378632041

	Generating empirical Hessian (Schlegel '84) for each fragment.
	Taking RFO optimization step.
	Going to follow RFO solution 1.
	Using RFO vector 1.
	Norm of target step-size    0.07445
	Projected energy change by RFO approximation:        -0.0021488628

	Back-transformation to cartesian coordinates...
	Successfully converged to displaced geometry.

	--- Internal Coordinate Step in ANG or DEG, aJ/ANG or AJ/DEG ---
	 ---------------------------------------------------------------------------
	   Coordinate                Previous        Force       Change         New 
	   ----------                --------       ------       ------       ------
	    1 R(1,2)          =      1.548253     0.072701     0.001699     1.549951
	    2 R(1,3)          =      1.548253     0.072700     0.001698     1.549951
	    3 R(1,4)          =      1.670531     0.137397     0.006561     1.677093
	    4 R(1,5)          =      1.670531     0.137398     0.006561     1.677093
	    5 B(2,1,3)        =    111.504060    -0.001258    -3.752003   107.752057
	    6 B(2,1,4)        =    108.739823     0.000278     0.813175   109.552997
	    7 B(2,1,5)        =    108.739770     0.000278     0.813219   109.552989
	    8 B(3,1,4)        =    108.740061     0.000278     0.812992   109.553052
	    9 B(3,1,5)        =    108.740055     0.000278     0.813004   109.553058
	   10 B(4,1,5)        =    110.377858     0.000144     0.442051   110.819909
	 ---------------------------------------------------------------------------
	Successfully symmetrized geometry.

  ==> Convergence Check <==

  Measures of convergence in internal coordinates in au.
  Criteria marked as inactive (o), active & met (*), and active & unmet ( ).
  --------------------------------------------------------------------------------------------- ~
   Step     Total Energy     Delta E     MAX Force     RMS Force      MAX Disp      RMS Disp    ~
  --------------------------------------------------------------------------------------------- ~
    Convergence Criteria             o    2.00e-06 *    1.00e-06 *    6.00e-06 *    4.00e-06 *  ~
  --------------------------------------------------------------------------------------------- ~
      1   -1390.43786320   -1.39e+03 o    1.67e-02      1.02e-02      6.55e-02      2.34e-02    ~
  ---------------------------------------------------------------------------------------------

	Writing optimization data to binary file.
	Structure for next step:
	Cartesian Geometry (in Angstrom)
	   CR    -0.0007480763   0.0497888979  -0.0109583740
	    O     1.0089143436   0.8016639209  -0.9151785970
	    O    -1.0372256042   1.0825018469   0.5004780439
	    F    -0.7823109340  -1.1338844366  -0.9057862615
	    F     0.8087565314  -0.6260000873   1.2931317409
			--------------------------
			 OPTKING Finished Execution 
			--------------------------

    Structure for next step:
    Molecular point group: c1
    Full point group: C1

    Geometry (in Angstrom), charge = 0, multiplicity = 1:

    CR          -0.000836099877     0.055627340232    -0.012243257357
    O            1.008826323992     0.807502366136    -0.916463483882
    O           -1.037313631842     1.088340293332     0.499193162564
    F           -0.782398960704    -1.128045998935    -0.907071148351
    F            0.808668511012    -0.620161647661     1.291846862665

gradient() will perform analytic gradient computation.

*** tstart() called on thinkpad
*** at Sat Jul 10 14:59:40 2021

   => Loading Basis Set <=

    Name: DEF2-QZVP
    Role: ORBITAL
    Keyword: BASIS
    atoms 1   entry CR         line  1332 file /usr/share/psi4/basis/def2-qzvp.gbs 
    atoms 2-3 entry O          line   290 file /usr/share/psi4/basis/def2-qzvp.gbs 
    atoms 4-5 entry F          line   338 file /usr/share/psi4/basis/def2-qzvp.gbs 


         ---------------------------------------------------------
                                   SCF
               by Justin Turney, Rob Parrish, Andy Simmonett
                          and Daniel G. A. Smith
                              RKS Reference
                        4 Threads,   7629 MiB Core
         ---------------------------------------------------------

  ==> Geometry <==

    Molecular point group: c1
    Full point group: C1

    Geometry (in Angstrom), charge = 0, multiplicity = 1:

       Center              X                  Y                   Z               Mass       
    ------------   -----------------  -----------------  -----------------  -----------------
         CR          -0.000836099877     0.055627340232    -0.012243257357    51.940506230000
         O            1.008826323992     0.807502366136    -0.916463483882    15.994914619570
         O           -1.037313631842     1.088340293332     0.499193162564    15.994914619570
         F           -0.782398960704    -1.128045998935    -0.907071148351    18.998403162730
         F            0.808668511012    -0.620161647661     1.291846862665    18.998403162730

  Running in c1 symmetry.

  Rotational constants: A =      0.15201  B =      0.13754  C =      0.12657 [cm^-1]
  Rotational constants: A =   4557.15157  B =   4123.20045  C =   3794.55824 [MHz]
  Nuclear repulsion =  354.251523349959200

  Charge       = 0
  Multiplicity = 1
  Electrons    = 58
  Nalpha       = 29
  Nbeta        = 29

  ==> Algorithm <==

  SCF Algorithm Type is DF.
  DIIS enabled.
  MOM disabled.
  Fractional occupation disabled.
  Guess Type is READ.
  Energy threshold   = 1.00e-08
  Density threshold  = 1.00e-08
  Integral threshold = 0.00e+00

  ==> Primary Basis <==

  Basis Set: DEF2-QZVP
    Blend: DEF2-QZVP
    Number of shells: 94
    Number of basis function: 312
    Number of Cartesian functions: 392
    Spherical Harmonics?: true
    Max angular momentum: 4

  ==> DFT Potential <==

   => Composite Functional: MY LDA <= 

    Slater exchange
    Perdew & Wang
    P. A. M. Dirac, Math. Proc. Cambridge Philos. Soc. 26, 376 (1930)
    F. Bloch, Z. Phys. 57, 545 (1929)
    J. P. Perdew and Y. Wang, Phys. Rev. B 45, 13244 (1992)

    Deriv               =              1
    GGA                 =          FALSE
    Meta                =          FALSE

    Exchange Hybrid     =          FALSE
    MP2 Hybrid          =          FALSE

   => Exchange Functionals <=

    1.0000         XC_lda_x

   => Correlation Functionals <=

    1.0000      XC_lda_c_pw

   => Molecular Quadrature <=

    Radial Scheme          =       TREUTLER
    Pruning Scheme         =           FLAT
    Nuclear Scheme         =       TREUTLER

    BS radius alpha        =              1
    Pruning alpha          =              1
    Radial Points          =             75
    Spherical Points       =            302
    Total Points           =         113250
    Total Blocks           =            921
    Max Points             =            256
    Max Functions          =            292

   => Loading Basis Set <=

    Name: (DEF2-QZVP AUX)
    Role: JKFIT
    Keyword: DF_BASIS_SCF
    atoms 1   entry CR         line  1731 file /usr/share/psi4/basis/def2-qzvp-jkfit.gbs 
    atoms 2-3 entry O          line   323 file /usr/share/psi4/basis/def2-qzvp-jkfit.gbs 
    atoms 4-5 entry F          line   383 file /usr/share/psi4/basis/def2-qzvp-jkfit.gbs 

   => Loading Basis Set <=

    Name: DEF2-QZVP
    Role: ORBITAL
    Keyword: BASIS
    atoms 1   entry CR         line  1332 file /usr/share/psi4/basis/def2-qzvp.gbs 
    atoms 2-3 entry O          line   290 file /usr/share/psi4/basis/def2-qzvp.gbs 
    atoms 4-5 entry F          line   338 file /usr/share/psi4/basis/def2-qzvp.gbs 

  Reading orbitals from file 180, no projection.

  ==> Pre-Iterations <==

   -------------------------------------------------------
    Irrep   Nso     Nmo     Nalpha   Nbeta   Ndocc  Nsocc
   -------------------------------------------------------
     A        312     312       0       0       0       0
   -------------------------------------------------------
    Total     312     312      29      29      29       0
   -------------------------------------------------------

  ==> Integral Setup <==

  DFHelper Memory: AOs need 0.424 GiB; user supplied 5.427 GiB. Using in-core AOs.

  ==> MemDFJK: Density-Fitted J/K Matrices <==

    J tasked:                   Yes
    K tasked:                    No
    wK tasked:                   No
    OpenMP threads:               4
    Memory [MiB]:              5556
    Algorithm:                 Core
    Schwarz Cutoff:           1E-12
    Mask sparsity (%):       5.8637
    Fitting Condition:        1E-10

   => Auxiliary Basis Set <=

  Basis Set: (DEF2-QZVP AUX)
    Blend: DEF2-QZVP-JKFIT
    Number of shells: 158
    Number of basis function: 572
    Number of Cartesian functions: 749
    Spherical Harmonics?: true
    Max angular momentum: 6

  Cached 100.0% of DFT collocation blocks in 0.161 [GiB].

  Minimum eigenvalue in the overlap matrix is 3.4943735863E-04.
  Using Symmetric Orthogonalization.

  SCF Guess: Orbitals guess was supplied from a previous computation.

  ==> Iterations <==

                           Total Energy        Delta E     RMS |[F,P]|

   @DF-RKS iter   0: -1390.42040083682969   -1.39042e+03   3.96544e-04 
   @DF-RKS iter   1: -1390.43689913259186   -1.64983e-02   2.65104e-04 DIIS
   @DF-RKS iter   2: -1390.31345202491570    1.23447e-01   2.13661e-03 DIIS
   @DF-RKS iter   3: -1390.43834095326793   -1.24889e-01   1.26844e-04 DIIS
   @DF-RKS iter   4: -1390.43873926952369   -3.98316e-04   5.51587e-05 DIIS
   @DF-RKS iter   5: -1390.43880717969796   -6.79102e-05   3.12650e-05 DIIS
   @DF-RKS iter   6: -1390.43882659130145   -1.94116e-05   1.28947e-05 DIIS
   @DF-RKS iter   7: -1390.43883092897750   -4.33768e-06   2.19341e-06 DIIS
   @DF-RKS iter   8: -1390.43883096694481   -3.79673e-08   1.71470e-06 DIIS
   @DF-RKS iter   9: -1390.43883106763155   -1.00687e-07   1.41631e-07 DIIS
   @DF-RKS iter  10: -1390.43883106819271   -5.61158e-10   2.23860e-08 DIIS
   @DF-RKS iter  11: -1390.43883106820681   -1.40972e-11   3.47027e-09 DIIS
  Energy and wave function converged.


  ==> Post-Iterations <==

    Orbital Energies [Eh]
    ---------------------

    Doubly Occupied:                                                      

       1A   -214.157470     2A    -24.412637     3A    -24.145893  
       4A    -24.145893     5A    -20.824181     6A    -20.823766  
       7A    -20.819732     8A    -18.702144     9A    -18.702144  
      10A     -2.889406    11A     -1.898188    12A     -1.896885  
      13A     -1.893238    14A     -1.103555    15A     -1.097742  
      16A     -0.896720    17A     -0.886173    18A     -0.490476  
      19A     -0.484329    20A     -0.467339    21A     -0.466260  
      22A     -0.462145    23A     -0.426407    24A     -0.422118  
      25A     -0.402646    26A     -0.382293    27A     -0.371127  
      28A     -0.370651    29A     -0.327096  

    Virtual:                                                              

      30A     -0.218063    31A     -0.204397    32A     -0.173784  
      33A     -0.142750    34A     -0.118811    35A     -0.022931  
      36A      0.021976    37A      0.022178    38A      0.022715  
      39A      0.100602    40A      0.113865    41A      0.114989  
      42A      0.115836    43A      0.116613    44A      0.116902  
      45A      0.145595    46A      0.154611    47A      0.154980  
      48A      0.290182    49A      0.301002    50A      0.326417  
      51A      0.331667    52A      0.336357    53A      0.343605  
      54A      0.355705    55A      0.367142    56A      0.373505  
      57A      0.377544    58A      0.401049    59A      0.436446  
      60A      0.450501    61A      0.461094    62A      0.461377  
      63A      0.467400    64A      0.467929    65A      0.486973  
      66A      0.491593    67A      0.511713    68A      0.516912  
      69A      0.854435    70A      0.855928    71A      0.915126  
      72A      0.920555    73A      0.941250    74A      0.966953  
      75A      0.970031    76A      1.057486    77A      1.070680  
      78A      1.071065    79A      1.071305    80A      1.075210  
      81A      1.131488    82A      1.182924    83A      1.204889  
      84A      1.221900    85A      1.267874    86A      1.282389  
      87A      1.289724    88A      1.298842    89A      1.313045  
      90A      1.316371    91A      1.321485    92A      1.321909  
      93A      1.343670    94A      1.410596    95A      1.418797  
      96A      1.447797    97A      1.465562    98A      1.477446  
      99A      1.530172   100A      1.542539   101A      1.575914  
     102A      1.596783   103A      1.611372   104A      1.648540  
     105A      1.661979   106A      1.682034   107A      1.685618  
     108A      1.706732   109A      1.798479   110A      1.841926  
     111A      1.885169   112A      2.074452   113A      2.112054  
     114A      2.128299   115A      2.136009   116A      2.247959  
     117A      2.434160   118A      2.474927   119A      2.736236  
     120A      2.800683   121A      2.845991   122A      2.877332  
     123A      2.891531   124A      2.950044   125A      2.989878  
     126A      3.025280   127A      3.069917   128A      3.086766  
     129A      3.114382   130A      3.121263   131A      3.155755  
     132A      3.247790   133A      3.274932   134A      3.305870  
     135A      3.507690   136A      3.517916   137A      3.595482  
     138A      3.602360   139A      3.656786   140A      3.681212  
     141A      3.707677   142A      3.745240   143A      3.769747  
     144A      3.780996   145A      3.865252   146A      3.876894  
     147A      3.938608   148A      3.961023   149A      3.979860  
     150A      3.979987   151A      4.007717   152A      4.028862  
     153A      4.067905   154A      4.070239   155A      4.091489  
     156A      4.118103   157A      4.172324   158A      4.176550  
     159A      4.222582   160A      4.225294   161A      4.257814  
     162A      4.259984   163A      4.328284   164A      4.331253  
     165A      4.349229   166A      4.550005   167A      4.631758  
     168A      4.642580   169A      4.701291   170A      4.770231  
     171A      4.819260   172A      4.838711   173A      4.884910  
     174A      4.888635   175A      4.930442   176A      4.953671  
     177A      4.956034   178A      4.959638   179A      4.974596  
     180A      4.987857   181A      5.057637   182A      5.145850  
     183A      5.220314   184A      5.223355   185A      5.294145  
     186A      5.307845   187A      5.384389   188A      5.585617  
     189A      5.596957   190A      5.716407   191A      5.837612  
     192A      5.841907   193A      5.976719   194A      6.036856  
     195A      6.044985   196A      6.140667   197A      6.203157  
     198A      6.231498   199A      6.239567   200A      6.264430  
     201A      6.405017   202A      6.502454   203A      6.667432  
     204A      6.944097   205A      6.955772   206A      8.646728  
     207A      8.649169   208A      8.658182   209A      8.658198  
     210A      8.658411   211A      8.660216   212A      8.663830  
     213A      8.678482   214A      8.695817   215A      8.734658  
     216A      8.751178   217A      8.766640   218A      8.930528  
     219A      8.952481   220A      8.971577   221A      9.011948  
     222A      9.026906   223A      9.117955   224A      9.166620  
     225A     10.628502   226A     10.661895   227A     10.694725  
     228A     10.703765   229A     10.720712   230A     10.756486  
     231A     10.762159   232A     10.782027   233A     10.818262  
     234A     10.821361   235A     10.896142   236A     10.905772  
     237A     10.954954   238A     10.995825   239A     11.016282  
     240A     11.170635   241A     11.178246   242A     11.183430  
     243A     11.183835   244A     11.193625   245A     11.194559  
     246A     11.194725   247A     11.194768   248A     11.194976  
     249A     11.197826   250A     11.204180   251A     11.204613  
     252A     11.234737   253A     11.251505   254A     11.256456  
     255A     11.308858   256A     11.371611   257A     11.444329  
     258A     11.446864   259A     11.551007   260A     11.590523  
     261A     11.624772   262A     11.717327   263A     11.720694  
     264A     11.732410   265A     11.764983   266A     11.788441  
     267A     11.825180   268A     11.987285   269A     12.007926  
     270A     12.028084   271A     12.075121   272A     12.344462  
     273A     12.544577   274A     13.402429   275A     13.536603  
     276A     14.312415   277A     14.317489   278A     14.330059  
     279A     14.330190   280A     14.400075   281A     14.402380  
     282A     14.403972   283A     14.449714   284A     14.581214  
     285A     14.581977   286A     14.591782   287A     14.618180  
     288A     14.620582   289A     14.688182   290A     15.260891  
     291A     15.298489   292A     15.520117   293A     15.539428  
     294A     15.557261   295A     15.608087   296A     15.783786  
     297A     15.841231   298A     15.863366   299A     15.883586  
     300A     16.286133   301A     16.294701   302A     29.262473  
     303A     47.156719   304A     47.349774   305A     53.818909  
     306A     53.902752   307A     97.903250   308A    252.108249  
     309A    252.327005   310A    284.693940   311A    284.797228  
     312A    622.635492  

    Final Occupation by Irrep:
              A 
    DOCC [    29 ]

  @DF-RKS Final Energy: -1390.43883106820681

   => Energetics <=

    Nuclear Repulsion Energy =            354.2515233499592000
    One-Electron Energy =               -2625.0781264586935322
    Two-Electron Energy =                 962.2430843451110150
    DFT Exchange-Correlation Energy =     -81.8553123045838618
    Empirical Dispersion Energy =           0.0000000000000000
    VV10 Nonlocal Energy =                  0.0000000000000000
    Total Energy =                      -1390.4388310682068095

Computation Completed


Properties will be evaluated at   0.000000,   0.000000,   0.000000 [a0]

Properties computed using the SCF density matrix

  Nuclear Dipole Moment: [e a0]
     X:    -0.0218      Y:     1.4512      Z:    -0.3194

  Electronic Dipole Moment: [e a0]
     X:     0.0240      Y:    -1.5950      Z:     0.3511

  Dipole Moment: [e a0]
     X:     0.0022      Y:    -0.1439      Z:     0.0317     Total:     0.1473

  Dipole Moment: [D]
     X:     0.0055      Y:    -0.3656      Z:     0.0805     Total:     0.3744


*** tstop() called on thinkpad at Sat Jul 10 14:59:50 2021
Module time:
	user time   =      28.53 seconds =       0.48 minutes
	system time =       0.35 seconds =       0.01 minutes
	total time  =         10 seconds =       0.17 minutes
Total time:
	user time   =      89.41 seconds =       1.49 minutes
	system time =       1.18 seconds =       0.02 minutes
	total time  =         31 seconds =       0.52 minutes

*** tstart() called on thinkpad
*** at Sat Jul 10 14:59:50 2021


         ------------------------------------------------------------
                                   SCF GRAD                          
                          Rob Parrish, Justin Turney,                
                       Andy Simmonett, and Alex Sokolov              
         ------------------------------------------------------------

  ==> Geometry <==

    Molecular point group: c1
    Full point group: C1

    Geometry (in Angstrom), charge = 0, multiplicity = 1:

       Center              X                  Y                   Z               Mass       
    ------------   -----------------  -----------------  -----------------  -----------------
         CR          -0.000836099877     0.055627340232    -0.012243257357    51.940506230000
         O            1.008826323992     0.807502366136    -0.916463483882    15.994914619570
         O           -1.037313631842     1.088340293332     0.499193162564    15.994914619570
         F           -0.782398960704    -1.128045998935    -0.907071148351    18.998403162730
         F            0.808668511012    -0.620161647661     1.291846862665    18.998403162730

  Nuclear repulsion =  354.251523349959200

  ==> Basis Set <==

  Basis Set: DEF2-QZVP
    Blend: DEF2-QZVP
    Number of shells: 94
    Number of basis function: 312
    Number of Cartesian functions: 392
    Spherical Harmonics?: true
    Max angular momentum: 4

  ==> DFJKGrad: Density-Fitted SCF Gradients <==

    Gradient:                    1
    J tasked:                  Yes
    K tasked:                   No
    wK tasked:                  No
    OpenMP threads:              4
    Integrals threads:           4
    Memory [MiB]:             5722
    Schwarz Cutoff:          0E+00
    Fitting Condition:       1E-10

   => Auxiliary Basis Set <=

  Basis Set: (DEF2-QZVP AUX)
    Blend: DEF2-QZVP-JKFIT
    Number of shells: 158
    Number of basis function: 572
    Number of Cartesian functions: 749
    Spherical Harmonics?: true
    Max angular momentum: 6

  ==> DFT Potential <==

   => Composite Functional: MY LDA <= 

    Slater exchange
    Perdew & Wang
    P. A. M. Dirac, Math. Proc. Cambridge Philos. Soc. 26, 376 (1930)
    F. Bloch, Z. Phys. 57, 545 (1929)
    J. P. Perdew and Y. Wang, Phys. Rev. B 45, 13244 (1992)

    Deriv               =              1
    GGA                 =          FALSE
    Meta                =          FALSE

    Exchange Hybrid     =          FALSE
    MP2 Hybrid          =          FALSE

   => Exchange Functionals <=

    1.0000         XC_lda_x

   => Correlation Functionals <=

    1.0000      XC_lda_c_pw

   => Molecular Quadrature <=

    Radial Scheme          =       TREUTLER
    Pruning Scheme         =           FLAT
    Nuclear Scheme         =       TREUTLER

    BS radius alpha        =              1
    Pruning alpha          =              1
    Radial Points          =             75
    Spherical Points       =            302
    Total Points           =         113250
    Total Blocks           =            921
    Max Points             =            256
    Max Functions          =            292


  -Total Gradient:
     Atom            X                  Y                   Z
    ------   -----------------  -----------------  -----------------
       1        0.000142319691    -0.009468021129     0.002084068052
       2       -0.004202849759    -0.001841576539     0.003466427260
       3        0.004275661194    -0.003005151506    -0.002399619301
       4        0.005634882493     0.008935805996     0.006371704036
       5       -0.005848390668     0.005270382944    -0.009498681783


*** tstop() called on thinkpad at Sat Jul 10 14:59:56 2021
Module time:
	user time   =      20.49 seconds =       0.34 minutes
	system time =       0.26 seconds =       0.00 minutes
	total time  =          6 seconds =       0.10 minutes
Total time:
	user time   =     109.91 seconds =       1.83 minutes
	system time =       1.44 seconds =       0.02 minutes
	total time  =         37 seconds =       0.62 minutes

			-----------------------------------------
			 OPTKING 2.0: for geometry optimizations 
			  - R.A. King,  Bethel University        
			-----------------------------------------

	Previous internal coordinate definitions found.
	---Fragment 1 Geometry and Gradient---
	 CR         -0.0015799998        0.1051204381       -0.0231364033
	 O           1.9064054605        1.5259583177       -1.7318649885
	 O          -1.9602386704        2.0566650857        0.9433383609
	 F          -1.4785197566       -2.1316979949       -1.7141160467
	 F           1.5281620121       -1.1719356676        2.4412367665
	             0.0001423197       -0.0094680211        0.0020840681
	            -0.0042028498       -0.0018415765        0.0034664273
	             0.0042756612       -0.0030051515       -0.0023996193
	             0.0056348825        0.0089358060        0.0063717040
	            -0.0058483907        0.0052703829       -0.0094986818

	---Fragment 1 Intrafragment Coordinates---
	 - Coordinate -           - BOHR/RAD -       - ANG/DEG -
	 R(1,2)           =         2.928983	       1.549951
	 R(1,3)           =         2.928983	       1.549951
	 R(1,4)           =         3.169246	       1.677093
	 R(1,5)           =         3.169246	       1.677093
	 B(2,1,3)         =         1.880628	     107.752057
	 B(2,1,4)         =         1.912061	     109.552997
	 B(2,1,5)         =         1.912060	     109.552989
	 B(3,1,4)         =         1.912061	     109.553052
	 B(3,1,5)         =         1.912062	     109.553058
	 B(4,1,5)         =         1.934172	     110.819909

	Current energy   :     -1390.4388310682

	Energy change for the previous step:
		Projected    :        -0.0021488628
		Actual       :        -0.0009678641

	Performing BFGS update.
	Previous computed or guess Hessian on step 1.
	Steps to be used in Hessian update: 1
	Taking RFO optimization step.
	Going to follow RFO solution 1.
	Using RFO vector 1.
	Norm of target step-size    0.01852
	Projected energy change by RFO approximation:        -0.0003610376

	Back-transformation to cartesian coordinates...
	Successfully converged to displaced geometry.

	--- Internal Coordinate Step in ANG or DEG, aJ/ANG or AJ/DEG ---
	 ---------------------------------------------------------------------------
	   Coordinate                Previous        Force       Change         New 
	   ----------                --------       ------       ------       ------
	    1 R(1,2)          =      1.549951     0.046469     0.001488     1.551439
	    2 R(1,3)          =      1.549951     0.046468     0.001488     1.551439
	    3 R(1,4)          =      1.677093     0.101708     0.006465     1.683558
	    4 R(1,5)          =      1.677093     0.101710     0.006466     1.683558
	    5 B(2,1,3)        =    107.752057     0.000215    -0.000884   107.751173
	    6 B(2,1,4)        =    109.552997    -0.000024     0.070306   109.623304
	    7 B(2,1,5)        =    109.552989    -0.000024     0.070333   109.623322
	    8 B(3,1,4)        =    109.553052    -0.000024     0.070225   109.623277
	    9 B(3,1,5)        =    109.553058    -0.000024     0.070235   109.623293
	   10 B(4,1,5)        =    110.819909    -0.000109    -0.272224   110.547686
	 ---------------------------------------------------------------------------
	Successfully symmetrized geometry.

  ==> Convergence Check <==

  Measures of convergence in internal coordinates in au.
  Criteria marked as inactive (o), active & met (*), and active & unmet ( ).
  ---------------------------------------------------------------------------------------------
   Step     Total Energy     Delta E     MAX Force     RMS Force      MAX Disp      RMS Disp   
  ---------------------------------------------------------------------------------------------
    Convergence Criteria             o    2.00e-06 *    1.00e-06 *    6.00e-06 *    4.00e-06 *
  ---------------------------------------------------------------------------------------------
      2   -1390.43883107   -9.68e-04 o    1.23e-02      6.16e-03      1.22e-02      5.86e-03    ~
  ---------------------------------------------------------------------------------------------

	Writing optimization data to binary file.
	Structure for next step:
	Cartesian Geometry (in Angstrom)
	   CR    -0.0008712000   0.0579996048  -0.0127656611
	    O     1.0097541192   0.8106072075  -0.9178521740
	    O    -1.0383385367   1.0917121104   0.4991558977
	    F    -0.7840892220  -1.1330310046  -0.9085244701
	    F     0.8104909821  -0.6240255657   1.2952485434
			--------------------------
			 OPTKING Finished Execution 
			--------------------------

    Structure for next step:
    Molecular point group: c1
    Full point group: C1

    Geometry (in Angstrom), charge = 0, multiplicity = 1:

    CR          -0.000864108865     0.057518212642    -0.012659645097
    O            1.009761214293     0.810125818249    -0.917746161588
    O           -1.038331449604     1.091230722244     0.499261915675
    F           -0.784082133876    -1.133512401478    -0.908418457650
    F            0.810498076419    -0.624506960599     1.295354564599

gradient() will perform analytic gradient computation.

*** tstart() called on thinkpad
*** at Sat Jul 10 14:59:56 2021

   => Loading Basis Set <=

    Name: DEF2-QZVP
    Role: ORBITAL
    Keyword: BASIS
    atoms 1   entry CR         line  1332 file /usr/share/psi4/basis/def2-qzvp.gbs 
    atoms 2-3 entry O          line   290 file /usr/share/psi4/basis/def2-qzvp.gbs 
    atoms 4-5 entry F          line   338 file /usr/share/psi4/basis/def2-qzvp.gbs 


         ---------------------------------------------------------
                                   SCF
               by Justin Turney, Rob Parrish, Andy Simmonett
                          and Daniel G. A. Smith
                              RKS Reference
                        4 Threads,   7629 MiB Core
         ---------------------------------------------------------

  ==> Geometry <==

    Molecular point group: c1
    Full point group: C1

    Geometry (in Angstrom), charge = 0, multiplicity = 1:

       Center              X                  Y                   Z               Mass       
    ------------   -----------------  -----------------  -----------------  -----------------
         CR          -0.000864108865     0.057518212642    -0.012659645097    51.940506230000
         O            1.009761214293     0.810125818249    -0.917746161588    15.994914619570
         O           -1.038331449604     1.091230722244     0.499261915675    15.994914619570
         F           -0.784082133876    -1.133512401478    -0.908418457650    18.998403162730
         F            0.810498076419    -0.624506960599     1.295354564599    18.998403162730

  Running in c1 symmetry.

  Rotational constants: A =      0.15116  B =      0.13707  C =      0.12577 [cm^-1]
  Rotational constants: A =   4531.58355  B =   4109.25606  C =   3770.49099 [MHz]
  Nuclear repulsion =  353.386586822779861

  Charge       = 0
  Multiplicity = 1
  Electrons    = 58
  Nalpha       = 29
  Nbeta        = 29

  ==> Algorithm <==

  SCF Algorithm Type is DF.
  DIIS enabled.
  MOM disabled.
  Fractional occupation disabled.
  Guess Type is READ.
  Energy threshold   = 1.00e-08
  Density threshold  = 1.00e-08
  Integral threshold = 0.00e+00

  ==> Primary Basis <==

  Basis Set: DEF2-QZVP
    Blend: DEF2-QZVP
    Number of shells: 94
    Number of basis function: 312
    Number of Cartesian functions: 392
    Spherical Harmonics?: true
    Max angular momentum: 4

  ==> DFT Potential <==

   => Composite Functional: MY LDA <= 

    Slater exchange
    Perdew & Wang
    P. A. M. Dirac, Math. Proc. Cambridge Philos. Soc. 26, 376 (1930)
    F. Bloch, Z. Phys. 57, 545 (1929)
    J. P. Perdew and Y. Wang, Phys. Rev. B 45, 13244 (1992)

    Deriv               =              1
    GGA                 =          FALSE
    Meta                =          FALSE

    Exchange Hybrid     =          FALSE
    MP2 Hybrid          =          FALSE

   => Exchange Functionals <=

    1.0000         XC_lda_x

   => Correlation Functionals <=

    1.0000      XC_lda_c_pw

   => Molecular Quadrature <=

    Radial Scheme          =       TREUTLER
    Pruning Scheme         =           FLAT
    Nuclear Scheme         =       TREUTLER

    BS radius alpha        =              1
    Pruning alpha          =              1
    Radial Points          =             75
    Spherical Points       =            302
    Total Points           =         113250
    Total Blocks           =            920
    Max Points             =            256
    Max Functions          =            292

   => Loading Basis Set <=

    Name: (DEF2-QZVP AUX)
    Role: JKFIT
    Keyword: DF_BASIS_SCF
    atoms 1   entry CR         line  1731 file /usr/share/psi4/basis/def2-qzvp-jkfit.gbs 
    atoms 2-3 entry O          line   323 file /usr/share/psi4/basis/def2-qzvp-jkfit.gbs 
    atoms 4-5 entry F          line   383 file /usr/share/psi4/basis/def2-qzvp-jkfit.gbs 

   => Loading Basis Set <=

    Name: DEF2-QZVP
    Role: ORBITAL
    Keyword: BASIS
    atoms 1   entry CR         line  1332 file /usr/share/psi4/basis/def2-qzvp.gbs 
    atoms 2-3 entry O          line   290 file /usr/share/psi4/basis/def2-qzvp.gbs 
    atoms 4-5 entry F          line   338 file /usr/share/psi4/basis/def2-qzvp.gbs 

  Reading orbitals from file 180, no projection.

  ==> Pre-Iterations <==

   -------------------------------------------------------
    Irrep   Nso     Nmo     Nalpha   Nbeta   Ndocc  Nsocc
   -------------------------------------------------------
     A        312     312       0       0       0       0
   -------------------------------------------------------
    Total     312     312      29      29      29       0
   -------------------------------------------------------

  ==> Integral Setup <==

  DFHelper Memory: AOs need 0.424 GiB; user supplied 5.427 GiB. Using in-core AOs.

  ==> MemDFJK: Density-Fitted J/K Matrices <==

    J tasked:                   Yes
    K tasked:                    No
    wK tasked:                   No
    OpenMP threads:               4
    Memory [MiB]:              5556
    Algorithm:                 Core
    Schwarz Cutoff:           1E-12
    Mask sparsity (%):       5.9521
    Fitting Condition:        1E-10

   => Auxiliary Basis Set <=

  Basis Set: (DEF2-QZVP AUX)
    Blend: DEF2-QZVP-JKFIT
    Number of shells: 158
    Number of basis function: 572
    Number of Cartesian functions: 749
    Spherical Harmonics?: true
    Max angular momentum: 6

  Cached 100.0% of DFT collocation blocks in 0.161 [GiB].

  Minimum eigenvalue in the overlap matrix is 3.5126180229E-04.
  Using Symmetric Orthogonalization.

  SCF Guess: Orbitals guess was supplied from a previous computation.

  ==> Iterations <==

                           Total Energy        Delta E     RMS |[F,P]|

   @DF-RKS iter   0: -1390.42881979086383   -1.39043e+03   1.07428e-04 
   @DF-RKS iter   1: -1390.43884527447130   -1.00255e-02   9.83818e-05 DIIS
   @DF-RKS iter   2: -1390.41847170913297    2.03736e-02   8.92303e-04 DIIS
   @DF-RKS iter   3: -1390.43909113191194   -2.06194e-02   2.08370e-05 DIIS
   @DF-RKS iter   4: -1390.43910113410629   -1.00022e-05   1.24941e-05 DIIS
   @DF-RKS iter   5: -1390.43910611505771   -4.98095e-06   2.80683e-06 DIIS
   @DF-RKS iter   6: -1390.43910624270711   -1.27649e-07   1.63205e-06 DIIS
   @DF-RKS iter   7: -1390.43910630353889   -6.08318e-08   4.90638e-07 DIIS
   @DF-RKS iter   8: -1390.43910630702248   -3.48359e-09   3.43639e-07 DIIS
   @DF-RKS iter   9: -1390.43910631041626   -3.39378e-09   5.13928e-08 DIIS
   @DF-RKS iter  10: -1390.43910631047311   -5.68434e-11   1.99439e-08 DIIS
   @DF-RKS iter  11: -1390.43910631048766   -1.45519e-11   2.33756e-09 DIIS
  Energy and wave function converged.


  ==> Post-Iterations <==

    Orbital Energies [Eh]
    ---------------------

    Doubly Occupied:                                                      

       1A   -214.158991     2A    -24.413846     3A    -24.145270  
       4A    -24.145270     5A    -20.825419     6A    -20.825019  
       7A    -20.820981     8A    -18.703245     9A    -18.703245  
      10A     -2.890027    11A     -1.898614    12A     -1.897460  
      13A     -1.893416    14A     -1.102312    15A     -1.096695  
      16A     -0.897463    17A     -0.886936    18A     -0.489254  
      19A     -0.482985    20A     -0.466404    21A     -0.464997  
      22A     -0.461550    23A     -0.426588    24A     -0.421173  
      25A     -0.402583    26A     -0.382984    27A     -0.371666  
      28A     -0.371053    29A     -0.327829  

    Virtual:                                                              

      30A     -0.219595    31A     -0.205696    32A     -0.175738  
      33A     -0.144724    34A     -0.120328    35A     -0.023081  
      36A      0.021849    37A      0.022094    38A      0.022626  
      39A      0.100449    40A      0.113757    41A      0.114819  
      42A      0.115823    43A      0.116584    44A      0.116819  
      45A      0.145255    46A      0.154426    47A      0.154647  
      48A      0.289899    49A      0.300788    50A      0.325787  
      51A      0.331154    52A      0.336015    53A      0.343346  
      54A      0.355005    55A      0.366810    56A      0.372237  
      57A      0.376779    58A      0.399948    59A      0.436231  
      60A      0.449995    61A      0.460808    62A      0.460986  
      63A      0.466844    64A      0.468318    65A      0.487083  
      66A      0.491866    67A      0.510598    68A      0.516643  
      69A      0.853115    70A      0.855085    71A      0.913778  
      72A      0.919659    73A      0.940483    74A      0.965973  
      75A      0.968223    76A      1.055872    77A      1.068376  
      78A      1.070325    79A      1.070965    80A      1.073722  
      81A      1.131336    82A      1.180458    83A      1.203631  
      84A      1.219884    85A      1.266879    86A      1.283038  
      87A      1.289435    88A      1.299224    89A      1.312334  
      90A      1.316338    91A      1.320824    92A      1.321311  
      93A      1.343855    94A      1.408005    95A      1.418649  
      96A      1.443488    97A      1.463008    98A      1.472187  
      99A      1.528835   100A      1.539257   101A      1.572585  
     102A      1.596689   103A      1.610271   104A      1.648907  
     105A      1.660576   106A      1.681816   107A      1.685763  
     108A      1.706860   109A      1.797842   110A      1.839545  
     111A      1.881665   112A      2.064567   113A      2.106972  
     114A      2.123676   115A      2.128446   116A      2.239798  
     117A      2.433821   118A      2.474180   119A      2.728623  
     120A      2.800596   121A      2.846883   122A      2.876556  
     123A      2.886525   124A      2.949539   125A      2.987877  
     126A      3.024177   127A      3.068488   128A      3.084747  
     129A      3.113664   130A      3.121829   131A      3.155500  
     132A      3.247308   133A      3.274018   134A      3.303653  
     135A      3.504932   136A      3.519257   137A      3.595063  
     138A      3.601483   139A      3.660152   140A      3.680094  
     141A      3.708008   142A      3.742753   143A      3.768952  
     144A      3.779186   145A      3.862408   146A      3.876097  
     147A      3.935861   148A      3.962034   149A      3.978492  
     150A      3.978511   151A      4.005695   152A      4.028370  
     153A      4.063922   154A      4.066714   155A      4.089260  
     156A      4.115593   157A      4.170012   158A      4.173262  
     159A      4.219365   160A      4.221353   161A      4.255598  
     162A      4.255749   163A      4.321600   164A      4.327282  
     165A      4.342132   166A      4.550235   167A      4.631324  
     168A      4.643427   169A      4.694244   170A      4.756351  
     171A      4.818521   172A      4.836831   173A      4.881310  
     174A      4.885098   175A      4.929182   176A      4.950764  
     177A      4.952630   178A      4.958538   179A      4.970663  
     180A      4.984684   181A      5.057945   182A      5.147177  
     183A      5.218617   184A      5.218715   185A      5.289271  
     186A      5.302849   187A      5.380913   188A      5.576897  
     189A      5.589614   190A      5.709380   191A      5.831998  
     192A      5.834053   193A      5.970869   194A      6.033162  
     195A      6.039446   196A      6.136404   197A      6.197879  
     198A      6.226722   199A      6.235052   200A      6.261090  
     201A      6.382384   202A      6.488099   203A      6.660023  
     204A      6.941795   205A      6.948485   206A      8.645892  
     207A      8.648287   208A      8.657418   209A      8.657491  
     210A      8.657691   211A      8.659458   212A      8.662577  
     213A      8.677378   214A      8.694368   215A      8.733039  
     216A      8.748991   217A      8.764752   218A      8.927299  
     219A      8.948846   220A      8.967517   221A      9.004658  
     222A      9.022322   223A      9.115025   224A      9.163245  
     225A     10.630896   226A     10.661599   227A     10.693633  
     228A     10.702642   229A     10.719626   230A     10.757704  
     231A     10.761668   232A     10.782714   233A     10.817318  
     234A     10.820217   235A     10.894526   236A     10.904075  
     237A     10.953141   238A     10.993486   239A     11.013848  
     240A     11.171590   241A     11.179632   242A     11.184777  
     243A     11.184824   244A     11.194421   245A     11.195757  
     246A     11.195920   247A     11.196000   248A     11.196204  
     249A     11.198765   250A     11.205631   251A     11.206069  
     252A     11.232235   253A     11.248896   254A     11.253289  
     255A     11.301609   256A     11.369444   257A     11.434564  
     258A     11.446648   259A     11.545345   260A     11.580866  
     261A     11.615439   262A     11.715121   263A     11.715542  
     264A     11.724575   265A     11.762592   266A     11.783445  
     267A     11.823485   268A     11.985053   269A     12.005178  
     270A     12.024759   271A     12.073513   272A     12.339953  
     273A     12.534321   274A     13.397339   275A     13.531836  
     276A     14.313373   277A     14.318303   278A     14.330256  
     279A     14.330429   280A     14.398568   281A     14.400134  
     282A     14.402208   283A     14.448186   284A     14.576056  
     285A     14.578382   286A     14.585989   287A     14.614939  
     288A     14.615667   289A     14.683864   290A     15.245195  
     291A     15.275448   292A     15.519448   293A     15.538121  
     294A     15.556610   295A     15.607173   296A     15.779409  
     297A     15.836605   298A     15.859066   299A     15.880523  
     300A     16.278913   301A     16.285510   302A     29.254306  
     303A     47.153839   304A     47.345337   305A     53.811660  
     306A     53.893320   307A     97.895126   308A    252.104777  
     309A    252.321866   310A    284.685112   311A    284.785639  
     312A    622.621227  

    Final Occupation by Irrep:
              A 
    DOCC [    29 ]

  @DF-RKS Final Energy: -1390.43910631048766

   => Energetics <=

    Nuclear Repulsion Energy =            353.3865868227798614
    One-Electron Energy =               -2623.3453371974687798
    Two-Electron Energy =                 961.3664594322347057
    DFT Exchange-Correlation Energy =     -81.8468153680335888
    Empirical Dispersion Energy =           0.0000000000000000
    VV10 Nonlocal Energy =                  0.0000000000000000
    Total Energy =                      -1390.4391063104876594

Computation Completed


Properties will be evaluated at   0.000000,   0.000000,   0.000000 [a0]

Properties computed using the SCF density matrix

  Nuclear Dipole Moment: [e a0]
     X:    -0.0218      Y:     1.4534      Z:    -0.3199

  Electronic Dipole Moment: [e a0]
     X:     0.0237      Y:    -1.5804      Z:     0.3478

  Dipole Moment: [e a0]
     X:     0.0019      Y:    -0.1269      Z:     0.0279     Total:     0.1300

  Dipole Moment: [D]
     X:     0.0048      Y:    -0.3227      Z:     0.0710     Total:     0.3304


*** tstop() called on thinkpad at Sat Jul 10 15:00:06 2021
Module time:
	user time   =      28.59 seconds =       0.48 minutes
	system time =       0.38 seconds =       0.01 minutes
	total time  =         10 seconds =       0.17 minutes
Total time:
	user time   =     138.54 seconds =       2.31 minutes
	system time =       1.82 seconds =       0.03 minutes
	total time  =         47 seconds =       0.78 minutes

*** tstart() called on thinkpad
*** at Sat Jul 10 15:00:06 2021


         ------------------------------------------------------------
                                   SCF GRAD                          
                          Rob Parrish, Justin Turney,                
                       Andy Simmonett, and Alex Sokolov              
         ------------------------------------------------------------

  ==> Geometry <==

    Molecular point group: c1
    Full point group: C1

    Geometry (in Angstrom), charge = 0, multiplicity = 1:

       Center              X                  Y                   Z               Mass       
    ------------   -----------------  -----------------  -----------------  -----------------
         CR          -0.000864108865     0.057518212642    -0.012659645097    51.940506230000
         O            1.009761214293     0.810125818249    -0.917746161588    15.994914619570
         O           -1.038331449604     1.091230722244     0.499261915675    15.994914619570
         F           -0.784082133876    -1.133512401478    -0.908418457650    18.998403162730
         F            0.810498076419    -0.624506960599     1.295354564599    18.998403162730

  Nuclear repulsion =  353.386586822779861

  ==> Basis Set <==

  Basis Set: DEF2-QZVP
    Blend: DEF2-QZVP
    Number of shells: 94
    Number of basis function: 312
    Number of Cartesian functions: 392
    Spherical Harmonics?: true
    Max angular momentum: 4

  ==> DFJKGrad: Density-Fitted SCF Gradients <==

    Gradient:                    1
    J tasked:                  Yes
    K tasked:                   No
    wK tasked:                  No
    OpenMP threads:              4
    Integrals threads:           4
    Memory [MiB]:             5722
    Schwarz Cutoff:          0E+00
    Fitting Condition:       1E-10

   => Auxiliary Basis Set <=

  Basis Set: (DEF2-QZVP AUX)
    Blend: DEF2-QZVP-JKFIT
    Number of shells: 158
    Number of basis function: 572
    Number of Cartesian functions: 749
    Spherical Harmonics?: true
    Max angular momentum: 6

  ==> DFT Potential <==

   => Composite Functional: MY LDA <= 

    Slater exchange
    Perdew & Wang
    P. A. M. Dirac, Math. Proc. Cambridge Philos. Soc. 26, 376 (1930)
    F. Bloch, Z. Phys. 57, 545 (1929)
    J. P. Perdew and Y. Wang, Phys. Rev. B 45, 13244 (1992)

    Deriv               =              1
    GGA                 =          FALSE
    Meta                =          FALSE

    Exchange Hybrid     =          FALSE
    MP2 Hybrid          =          FALSE

   => Exchange Functionals <=

    1.0000         XC_lda_x

   => Correlation Functionals <=

    1.0000      XC_lda_c_pw

   => Molecular Quadrature <=

    Radial Scheme          =       TREUTLER
    Pruning Scheme         =           FLAT
    Nuclear Scheme         =       TREUTLER

    BS radius alpha        =              1
    Pruning alpha          =              1
    Radial Points          =             75
    Spherical Points       =            302
    Total Points           =         113250
    Total Blocks           =            920
    Max Points             =            256
    Max Functions          =            292


  -Total Gradient:
     Atom            X                  Y                   Z
    ------   -----------------  -----------------  -----------------
       1        0.000095107959    -0.006317957565     0.001390531803
       2       -0.002809067733    -0.000819635977     0.002221840959
       3        0.002845246634    -0.001595659067    -0.001690201817
       4        0.003545274551     0.005464561057     0.004040194910
       5       -0.003674921373     0.003159808956    -0.005938400719


*** tstop() called on thinkpad at Sat Jul 10 15:00:13 2021
Module time:
	user time   =      20.36 seconds =       0.34 minutes
	system time =       0.31 seconds =       0.01 minutes
	total time  =          7 seconds =       0.12 minutes
Total time:
	user time   =     158.91 seconds =       2.65 minutes
	system time =       2.13 seconds =       0.04 minutes
	total time  =         54 seconds =       0.90 minutes

			-----------------------------------------
			 OPTKING 2.0: for geometry optimizations 
			  - R.A. King,  Bethel University        
			-----------------------------------------

	Previous internal coordinate definitions found.
	---Fragment 1 Geometry and Gradient---
	 CR         -0.0016329291        0.1086936691       -0.0239232621
	 O           1.9081721471        1.5309159237       -1.7342888981
	 O          -1.9621620672        2.0621272047        0.9434682855
	 F          -1.4817004929       -2.1420279986       -1.7166620923
	 F           1.5316193896       -1.1801471190        2.4478653625
	             0.0000951080       -0.0063179576        0.0013905318
	            -0.0028090677       -0.0008196360        0.0022218410
	             0.0028452466       -0.0015956591       -0.0016902018
	             0.0035452746        0.0054645611        0.0040401949
	            -0.0036749214        0.0031598090       -0.0059384007

	---Fragment 1 Intrafragment Coordinates---
	 - Coordinate -           - BOHR/RAD -       - ANG/DEG -
	 R(1,2)           =         2.931795	       1.551439
	 R(1,3)           =         2.931795	       1.551439
	 R(1,4)           =         3.181464	       1.683558
	 R(1,5)           =         3.181464	       1.683558
	 B(2,1,3)         =         1.880613	     107.751173
	 B(2,1,4)         =         1.913288	     109.623304
	 B(2,1,5)         =         1.913288	     109.623322
	 B(3,1,4)         =         1.913287	     109.623277
	 B(3,1,5)         =         1.913287	     109.623293
	 B(4,1,5)         =         1.929421	     110.547686

	Current energy   :     -1390.4391063105

	Energy change for the previous step:
		Projected    :        -0.0003610376
		Actual       :        -0.0002752423
	Energy ratio indicates good step: Trust radius increased to 1.000e+00.


	Performing BFGS update.
	Previous computed or guess Hessian on step 1.
	Steps to be used in Hessian update: 2 1
	Taking RFO optimization step.
	Going to follow RFO solution 1.
	Using RFO vector 1.
	Norm of target step-size    0.02972
	Projected energy change by RFO approximation:        -0.0003834217

	Back-transformation to cartesian coordinates...
	Successfully converged to displaced geometry.

	--- Internal Coordinate Step in ANG or DEG, aJ/ANG or AJ/DEG ---
	 ---------------------------------------------------------------------------
	   Coordinate                Previous        Force       Change         New 
	   ----------                --------       ------       ------       ------
	    1 R(1,2)          =      1.551439     0.028922     0.002353     1.553792
	    2 R(1,3)          =      1.551439     0.028921     0.002353     1.553792
	    3 R(1,4)          =      1.683558     0.063253     0.010210     1.693768
	    4 R(1,5)          =      1.683558     0.063253     0.010210     1.693768
	    5 B(2,1,3)        =    107.751173     0.000202     0.464232   108.215405
	    6 B(2,1,4)        =    109.623304    -0.000035    -0.030151   109.593153
	    7 B(2,1,5)        =    109.623322    -0.000035    -0.030170   109.593151
	    8 B(3,1,4)        =    109.623277    -0.000035    -0.030161   109.593116
	    9 B(3,1,5)        =    109.623293    -0.000035    -0.030189   109.593104
	   10 B(4,1,5)        =    110.547686    -0.000055    -0.326336   110.221350
	 ---------------------------------------------------------------------------
	Successfully symmetrized geometry.

  ==> Convergence Check <==

  Measures of convergence in internal coordinates in au.
  Criteria marked as inactive (o), active & met (*), and active & unmet ( ).
  ---------------------------------------------------------------------------------------------
   Step     Total Energy     Delta E     MAX Force     RMS Force      MAX Disp      RMS Disp   
  ---------------------------------------------------------------------------------------------
    Convergence Criteria             o    2.00e-06 *    1.00e-06 *    6.00e-06 *    4.00e-06 *
  ---------------------------------------------------------------------------------------------
      3   -1390.43910631   -2.75e-04 o    7.68e-03      3.89e-03      1.93e-02      9.40e-03    ~
  ---------------------------------------------------------------------------------------------

	Writing optimization data to binary file.
	Structure for next step:
	Cartesian Geometry (in Angstrom)
	   CR    -0.0009432548   0.0627839859  -0.0138188110
	    O     1.0143139348   0.8111458448  -0.9212758500
	    O    -1.0429334751   1.0935070687   0.5020662314
	    F    -0.7872663814  -1.1388305449  -0.9119657407
	    F     0.8138107748  -0.6277509643   1.3007863864
			--------------------------
			 OPTKING Finished Execution 
			--------------------------

    Structure for next step:
    Molecular point group: c1
    Full point group: C1

    Geometry (in Angstrom), charge = 0, multiplicity = 1:

    CR          -0.000923085801     0.061442488217    -0.013523497744
    O            1.014334107778     0.809804350011    -0.920980540276
    O           -1.042913310175     1.092165575002     0.502361546753
    F           -0.787246215536    -1.140172047326    -0.911670430950
    F            0.813830946986    -0.629092464733     1.301081704886

gradient() will perform analytic gradient computation.

*** tstart() called on thinkpad
*** at Sat Jul 10 15:00:13 2021

   => Loading Basis Set <=

    Name: DEF2-QZVP
    Role: ORBITAL
    Keyword: BASIS
    atoms 1   entry CR         line  1332 file /usr/share/psi4/basis/def2-qzvp.gbs 
    atoms 2-3 entry O          line   290 file /usr/share/psi4/basis/def2-qzvp.gbs 
    atoms 4-5 entry F          line   338 file /usr/share/psi4/basis/def2-qzvp.gbs 


         ---------------------------------------------------------
                                   SCF
               by Justin Turney, Rob Parrish, Andy Simmonett
                          and Daniel G. A. Smith
                              RKS Reference
                        4 Threads,   7629 MiB Core
         ---------------------------------------------------------

  ==> Geometry <==

    Molecular point group: c1
    Full point group: C1

    Geometry (in Angstrom), charge = 0, multiplicity = 1:

       Center              X                  Y                   Z               Mass       
    ------------   -----------------  -----------------  -----------------  -----------------
         CR          -0.000923085801     0.061442488217    -0.013523497744    51.940506230000
         O            1.014334107778     0.809804350011    -0.920980540276    15.994914619570
         O           -1.042913310175     1.092165575002     0.502361546753    15.994914619570
         F           -0.787246215536    -1.140172047326    -0.911670430950    18.998403162730
         F            0.813830946986    -0.629092464733     1.301081704886    18.998403162730

  Running in c1 symmetry.

  Rotational constants: A =      0.14996  B =      0.13592  C =      0.12481 [cm^-1]
  Rotational constants: A =   4495.69707  B =   4074.66243  C =   3741.62276 [MHz]
  Nuclear repulsion =  352.031763323717939

  Charge       = 0
  Multiplicity = 1
  Electrons    = 58
  Nalpha       = 29
  Nbeta        = 29

  ==> Algorithm <==

  SCF Algorithm Type is DF.
  DIIS enabled.
  MOM disabled.
  Fractional occupation disabled.
  Guess Type is READ.
  Energy threshold   = 1.00e-08
  Density threshold  = 1.00e-08
  Integral threshold = 0.00e+00

  ==> Primary Basis <==

  Basis Set: DEF2-QZVP
    Blend: DEF2-QZVP
    Number of shells: 94
    Number of basis function: 312
    Number of Cartesian functions: 392
    Spherical Harmonics?: true
    Max angular momentum: 4

  ==> DFT Potential <==

   => Composite Functional: MY LDA <= 

    Slater exchange
    Perdew & Wang
    P. A. M. Dirac, Math. Proc. Cambridge Philos. Soc. 26, 376 (1930)
    F. Bloch, Z. Phys. 57, 545 (1929)
    J. P. Perdew and Y. Wang, Phys. Rev. B 45, 13244 (1992)

    Deriv               =              1
    GGA                 =          FALSE
    Meta                =          FALSE

    Exchange Hybrid     =          FALSE
    MP2 Hybrid          =          FALSE

   => Exchange Functionals <=

    1.0000         XC_lda_x

   => Correlation Functionals <=

    1.0000      XC_lda_c_pw

   => Molecular Quadrature <=

[...]
      99A      1.526999   100A      1.531641   101A      1.568038  
     102A      1.596440   103A      1.608541   104A      1.649352  
     105A      1.657286   106A      1.681209   107A      1.686313  
     108A      1.707136   109A      1.795845   110A      1.834580  
     111A      1.875915   112A      2.051638   113A      2.095880  
     114A      2.111014   115A      2.120338   116A      2.227557  
     117A      2.434499   118A      2.473251   119A      2.716004  
     120A      2.800442   121A      2.848622   122A      2.871206  
     123A      2.882600   124A      2.947940   125A      2.983927  
     126A      3.021314   127A      3.067322   128A      3.082044  
     129A      3.112114   130A      3.123207   131A      3.157092  
     132A      3.246603   133A      3.272746   134A      3.297543  
     135A      3.502600   136A      3.519223   137A      3.594283  
     138A      3.595587   139A      3.665092   140A      3.676332  
     141A      3.711113   142A      3.740660   143A      3.768330  
     144A      3.776641   145A      3.858331   146A      3.873856  
     147A      3.928638   148A      3.964839   149A      3.976029  
     150A      3.976320   151A      4.000714   152A      4.027525  
     153A      4.059065   154A      4.061400   155A      4.085474  
     156A      4.110535   157A      4.166888   158A      4.168019  
     159A      4.214236   160A      4.215413   161A      4.249172  
     162A      4.249830   163A      4.312413   164A      4.321163  
     165A      4.332625   166A      4.545317   167A      4.633269  
     168A      4.640444   169A      4.677806   170A      4.735118  
     171A      4.815301   172A      4.834752   173A      4.873471  
     174A      4.880714   175A      4.926942   176A      4.946291  
     177A      4.948199   178A      4.956428   179A      4.960540  
     180A      4.981846   181A      5.056558   182A      5.152221  
     183A      5.212611   184A      5.222747   185A      5.278080  
     186A      5.298279   187A      5.374251   188A      5.566449  
     189A      5.576390   190A      5.698311   191A      5.817862  
     192A      5.826812   193A      5.961454   194A      6.023716  
     195A      6.032092   196A      6.129636   197A      6.189736  
     198A      6.220611   199A      6.229137   200A      6.252369  
     201A      6.347119   202A      6.458262   203A      6.652055  
     204A      6.932464   205A      6.937934   206A      8.644414  
     207A      8.646823   208A      8.656149   209A      8.656250  
     210A      8.656437   211A      8.658134   212A      8.660653  
     213A      8.675464   214A      8.692300   215A      8.729284  
     216A      8.746588   217A      8.759960   218A      8.921923  
     219A      8.939184   220A      8.964362   221A      8.992723  
     222A      9.014857   223A      9.110587   224A      9.157721  
     225A     10.633798   226A     10.660789   227A     10.691723  
     228A     10.699916   229A     10.718551   230A     10.759903  
     231A     10.759987   232A     10.784288   233A     10.816571  
     234A     10.819869   235A     10.892215   236A     10.901887  
     237A     10.949629   238A     10.987824   239A     11.010548  
     240A     11.173341   241A     11.181907   242A     11.186535  
     243A     11.187054   244A     11.195972   245A     11.197774  
     246A     11.197941   247A     11.198071   248A     11.198259  
     249A     11.200579   250A     11.207773   251A     11.208412  
     252A     11.228420   253A     11.244958   254A     11.248712  
     255A     11.290450   256A     11.366637   257A     11.415538  
     258A     11.447622   259A     11.530085   260A     11.568374  
     261A     11.599373   262A     11.706926   263A     11.711142  
     264A     11.711751   265A     11.758737   266A     11.776176  
     267A     11.820714   268A     11.981764   269A     11.996873  
     270A     12.020992   271A     12.075816   272A     12.332221  
     273A     12.516881   274A     13.389870   275A     13.523705  
     276A     14.314942   277A     14.319644   278A     14.330802  
     279A     14.331073   280A     14.395717   281A     14.397537  
     282A     14.400547   283A     14.444942   284A     14.567710  
     285A     14.570361   286A     14.576492   287A     14.606422  
     288A     14.611712   289A     14.675437   290A     15.217289  
     291A     15.236414   292A     15.518558   293A     15.536546  
     294A     15.555545   295A     15.604664   296A     15.773838  
     297A     15.829970   298A     15.853819   299A     15.871964  
     300A     16.266570   301A     16.269637   302A     29.240425  
     303A     47.148146   304A     47.338683   305A     53.798181  
     306A     53.877352   307A     97.881442   308A    252.098020  
     309A    252.314125   310A    284.668684   311A    284.766013  
     312A    622.597287  

    Final Occupation by Irrep:
              A 
    DOCC [    29 ]

  @DF-RKS Final Energy: -1390.43929868327473

   => Energetics <=

    Nuclear Repulsion Energy =            351.9120839722240817
    One-Electron Energy =               -2620.3906342654831860
    Two-Electron Energy =                 959.8717075489444142
    DFT Exchange-Correlation Energy =     -81.8324559389599528
    Empirical Dispersion Energy =           0.0000000000000000
    VV10 Nonlocal Energy =                  0.0000000000000000
    Total Energy =                      -1390.4392986832747283

Computation Completed


Properties will be evaluated at   0.000000,   0.000000,   0.000000 [a0]

Properties computed using the SCF density matrix

  Nuclear Dipole Moment: [e a0]
     X:    -0.0218      Y:     1.4495      Z:    -0.3190

  Electronic Dipole Moment: [e a0]
     X:     0.0233      Y:    -1.5497      Z:     0.3411

  Dipole Moment: [e a0]
     X:     0.0015      Y:    -0.1002      Z:     0.0221     Total:     0.1026

  Dipole Moment: [D]
     X:     0.0038      Y:    -0.2547      Z:     0.0561     Total:     0.2608


*** tstop() called on thinkpad at Sat Jul 10 15:03:42 2021
Module time:
	user time   =      15.35 seconds =       0.26 minutes
	system time =       0.27 seconds =       0.00 minutes
	total time  =          6 seconds =       0.10 minutes
Total time:
	user time   =     760.17 seconds =      12.67 minutes
	system time =      10.91 seconds =       0.18 minutes
	total time  =        263 seconds =       4.38 minutes

*** tstart() called on thinkpad
*** at Sat Jul 10 15:03:42 2021


         ------------------------------------------------------------
                                   SCF GRAD                          
                          Rob Parrish, Justin Turney,                
                       Andy Simmonett, and Alex Sokolov              
         ------------------------------------------------------------

  ==> Geometry <==

    Molecular point group: c1
    Full point group: C1

    Geometry (in Angstrom), charge = 0, multiplicity = 1:

       Center              X                  Y                   Z               Mass       
    ------------   -----------------  -----------------  -----------------  -----------------
         CR          -0.000910280537     0.060580950916    -0.013333732007    51.940506230000
         O            1.014321711869     0.809244732658    -0.920842331465    15.994914619570
         O           -1.042884078759     1.091600611896     0.502470760006    15.994914619570
         F           -0.788967847075    -1.139062613879    -0.914379305409    18.998403162730
         F            0.815503395739    -0.626899712652     1.303063464380    18.998403162730

  Nuclear repulsion =  351.912083972224082

  ==> Basis Set <==

  Basis Set: DEF2-QZVP
    Blend: DEF2-QZVP
    Number of shells: 94
    Number of basis function: 312
    Number of Cartesian functions: 392
    Spherical Harmonics?: true
    Max angular momentum: 4

  ==> DFJKGrad: Density-Fitted SCF Gradients <==

    Gradient:                    1
    J tasked:                  Yes
    K tasked:                   No
    wK tasked:                  No
    OpenMP threads:              4
    Integrals threads:           4
    Memory [MiB]:             5722
    Schwarz Cutoff:          0E+00
    Fitting Condition:       1E-10

   => Auxiliary Basis Set <=

  Basis Set: (DEF2-QZVP AUX)
    Blend: DEF2-QZVP-JKFIT
    Number of shells: 158
    Number of basis function: 572
    Number of Cartesian functions: 749
    Spherical Harmonics?: true
    Max angular momentum: 6

  ==> DFT Potential <==

   => Composite Functional: MY LDA <= 

    Slater exchange
    Perdew & Wang
    P. A. M. Dirac, Math. Proc. Cambridge Philos. Soc. 26, 376 (1930)
    F. Bloch, Z. Phys. 57, 545 (1929)
    J. P. Perdew and Y. Wang, Phys. Rev. B 45, 13244 (1992)

    Deriv               =              1
    GGA                 =          FALSE
    Meta                =          FALSE

    Exchange Hybrid     =          FALSE
    MP2 Hybrid          =          FALSE

   => Exchange Functionals <=

    1.0000         XC_lda_x

   => Correlation Functionals <=

    1.0000      XC_lda_c_pw

   => Molecular Quadrature <=

    Radial Scheme          =       TREUTLER
    Pruning Scheme         =           FLAT
    Nuclear Scheme         =       TREUTLER

    BS radius alpha        =              1
    Pruning alpha          =              1
    Radial Points          =             75
    Spherical Points       =            302
    Total Points           =         113250
    Total Blocks           =            922
    Max Points             =            256
    Max Functions          =            293


  -Total Gradient:
     Atom            X                  Y                   Z
    ------   -----------------  -----------------  -----------------
       1        0.000000369548    -0.000023122031     0.000005049000
       2        0.000001414166    -0.000019836603     0.000003561426
       3       -0.000000859961    -0.000019483377     0.000005125171
       4        0.000000504693    -0.000020287621     0.000004746783
       5        0.000000122236    -0.000020419604     0.000004220136


*** tstop() called on thinkpad at Sat Jul 10 15:03:49 2021
Module time:
	user time   =      20.45 seconds =       0.34 minutes
	system time =       0.28 seconds =       0.00 minutes
	total time  =          7 seconds =       0.12 minutes
Total time:
	user time   =     780.62 seconds =      13.01 minutes
	system time =      11.19 seconds =       0.19 minutes
	total time  =        270 seconds =       4.50 minutes

			-----------------------------------------
			 OPTKING 2.0: for geometry optimizations 
			  - R.A. King,  Bethel University        
			-----------------------------------------

	Previous internal coordinate definitions found.
	---Fragment 1 Geometry and Gradient---
	 CR         -0.0017201809        0.1144814057       -0.0251971017
	 O           1.9167902385        1.5292509132       -1.7401398112
	 O          -1.9707652895        2.0628261949        0.9495321225
	 F          -1.4909331528       -2.1525163800       -1.7279264620
	 F           1.5410780723       -1.1846687650        2.4624330718
	             0.0000003695       -0.0000231220        0.0000050490
	             0.0000014142       -0.0000198366        0.0000035614
	            -0.0000008600       -0.0000194834        0.0000051252
	             0.0000005047       -0.0000202876        0.0000047468
	             0.0000001222       -0.0000204196        0.0000042201

	---Fragment 1 Intrafragment Coordinates---
	 - Coordinate -           - BOHR/RAD -       - ANG/DEG -
	 R(1,2)           =         2.936543	       1.553952
	 R(1,3)           =         2.936543	       1.553951
	 R(1,4)           =         3.202549	       1.694716
	 R(1,5)           =         3.202549	       1.694716
	 B(2,1,3)         =         1.888376	     108.195993
	 B(2,1,4)         =         1.911700	     109.532357
	 B(2,1,5)         =         1.911700	     109.532357
	 B(3,1,4)         =         1.911700	     109.532352
	 B(3,1,5)         =         1.911700	     109.532353
	 B(4,1,5)         =         1.928204	     110.477971

	Current energy   :     -1390.4392986833

	Energy change for the previous step:
		Projected    :        -0.0000000000
		Actual       :        -0.0000000002

	Performing BFGS update.
	Previous computed or guess Hessian on step 1.
	Denominators (dg)(dq) or (dq)(dq) are very small.
	 Skipping Hessian update for step 18.
	Denominators (dg)(dq) or (dq)(dq) are very small.
	 Skipping Hessian update for step 17.
	Denominators (dg)(dq) or (dq)(dq) are very small.
	 Skipping Hessian update for step 16.
	Denominators (dg)(dq) or (dq)(dq) are very small.
	 Skipping Hessian update for step 15.
	Denominators (dg)(dq) or (dq)(dq) are very small.
	 Skipping Hessian update for step 14.
	Denominators (dg)(dq) or (dq)(dq) are very small.
	 Skipping Hessian update for step 13.
	Denominators (dg)(dq) or (dq)(dq) are very small.
	 Skipping Hessian update for step 12.
	Denominators (dg)(dq) or (dq)(dq) are very small.
	 Skipping Hessian update for step 11.
	Denominators (dg)(dq) or (dq)(dq) are very small.
	 Skipping Hessian update for step 10.
	Denominators (dg)(dq) or (dq)(dq) are very small.
	 Skipping Hessian update for step 9.
	Denominators (dg)(dq) or (dq)(dq) are very small.
	 Skipping Hessian update for step 8.
	Denominators (dg)(dq) or (dq)(dq) are very small.
	 Skipping Hessian update for step 7.
	Denominators (dg)(dq) or (dq)(dq) are very small.
	 Skipping Hessian update for step 6.
	Steps to be used in Hessian update: 5 4
	Taking RFO optimization step.
	Going to follow RFO solution 1.
	Using RFO vector 1.
	Norm of target step-size    0.00000
	Projected energy change by RFO approximation:        -0.0000000000

	Back-transformation to cartesian coordinates...
	Successfully converged to displaced geometry.

	--- Internal Coordinate Step in ANG or DEG, aJ/ANG or AJ/DEG ---
	 ---------------------------------------------------------------------------
	   Coordinate                Previous        Force       Change         New 
	   ----------                --------       ------       ------       ------
	    1 R(1,2)          =      1.553952    -0.000014    -0.000000     1.553951
	    2 R(1,3)          =      1.553951    -0.000014    -0.000000     1.553951
	    3 R(1,4)          =      1.694716     0.000004     0.000000     1.694716
	    4 R(1,5)          =      1.694716     0.000003     0.000000     1.694716
	    5 B(2,1,3)        =    108.195993    -0.000000    -0.000001   108.195992
	    6 B(2,1,4)        =    109.532357     0.000000     0.000004   109.532360
	    7 B(2,1,5)        =    109.532357     0.000000     0.000005   109.532362
	    8 B(3,1,4)        =    109.532352     0.000000     0.000000   109.532352
	    9 B(3,1,5)        =    109.532353     0.000000     0.000001   109.532354
	   10 B(4,1,5)        =    110.477971    -0.000000    -0.000009   110.477962
	 ---------------------------------------------------------------------------
	Successfully symmetrized geometry.

  ==> Convergence Check <==

  Measures of convergence in internal coordinates in au.
  Criteria marked as inactive (o), active & met (*), and active & unmet ( ).
  ---------------------------------------------------------------------------------------------
   Step     Total Energy     Delta E     MAX Force     RMS Force      MAX Disp      RMS Disp   
  ---------------------------------------------------------------------------------------------
    Convergence Criteria             o    2.00e-06 *    1.00e-06 *    6.00e-06 *    4.00e-06 *
  ---------------------------------------------------------------------------------------------
     19   -1390.43929868   -1.51e-10 o    1.74e-06 *    7.89e-07 *    6.52e-07 *    3.20e-07 *  ~
  ---------------------------------------------------------------------------------------------


  **** Optimization is complete! (in 19 steps) ****

  ==> Optimization Summary <==

  Measures of convergence in internal coordinates in au.
  --------------------------------------------------------------------------------------------------------------- ~
   Step         Total Energy             Delta E       MAX Force       RMS Force        MAX Disp        RMS Disp  ~
  --------------------------------------------------------------------------------------------------------------- ~
      1   -1390.437863204110  -1390.437863204110      0.01667706      0.01021050      0.06548480      0.02341246  ~
      2   -1390.438831068207     -0.000967864097      0.01234534      0.00615553      0.01221820      0.00585635  ~
      3   -1390.439106310488     -0.000275242281      0.00767759      0.00388526      0.01929348      0.00939800  ~
      4   -1390.439295646364     -0.000189335877      0.00059672      0.00033859      0.00185870      0.00094558  ~
      5   -1390.439298022038     -0.000002375673      0.00029809      0.00011215      0.00187390      0.00066930  ~
      6   -1390.439298617789     -0.000000595751      0.00008075      0.00003688      0.00073009      0.00026971  ~
      7   -1390.439298689696     -0.000000071907      0.00002802      0.00001265      0.00001778      0.00000852  ~
      8   -1390.439298689308      0.000000000388      0.00002159      0.00000979      0.00000794      0.00000388  ~
      9   -1390.439298687862      0.000000001446      0.00001697      0.00000778      0.00000625      0.00000309  ~
     10   -1390.439298686301      0.000000001562      0.00001350      0.00000620      0.00000502      0.00000245  ~
     11   -1390.439298686208      0.000000000093      0.00001066      0.00000489      0.00000392      0.00000197  ~
     12   -1390.439298686597     -0.000000000389      0.00000855      0.00000389      0.00000316      0.00000156  ~
     13   -1390.439298684474      0.000000002123      0.00000658      0.00000304      0.00000239      0.00000126  ~
     14   -1390.439298684284      0.000000000190      0.00000540      0.00000246      0.00000203      0.00000098  ~
     15   -1390.439298683162      0.000000001122      0.00000436      0.00000193      0.00000161      0.00000080  ~
     16   -1390.439298684134     -0.000000000972      0.00000333      0.00000154      0.00000120      0.00000066  ~
     17   -1390.439298684129      0.000000000005      0.00000273      0.00000117      0.00000101      0.00000053  ~
     18   -1390.439298683123      0.000000001006      0.00000214      0.00000098      0.00000082      0.00000041  ~
     19   -1390.439298683275     -0.000000000151      0.00000174      0.00000079      0.00000065      0.00000032  ~
  --------------------------------------------------------------------------------------------------------------- ~

	Writing optimization data to binary file.
	Final energy is  -1390.4392986832747
	Final (previous) structure:
	Cartesian Geometry (in Angstrom)
	   CR    -0.0009102805   0.0605809507  -0.0133337320
	    O     1.0143217079   0.8092447295  -0.9208423278
	    O    -1.0428840747   1.0916006076   0.5024707580
	    F    -0.7889678440  -1.1390626094  -0.9143793018
	    F     0.8155033925  -0.6268997102   1.3030634593
	Saving final (previous) structure.
			--------------------------
			 OPTKING Finished Execution 
			--------------------------

    Final optimized geometry and variables:
    Molecular point group: c1
    Full point group: C1

    Geometry (in Angstrom), charge = 0, multiplicity = 1:

    CR          -0.000910280537     0.060580950916    -0.013333732007
    O            1.014321711869     0.809244732658    -0.920842331465
    O           -1.042884078759     1.091600611896     0.502470760006
    F           -0.788967847075    -1.139062613879    -0.914379305409
    F            0.815503395739    -0.626899712652     1.303063464380

	Removing binary optimization data file.
	Cleaning optimization helper files.

    Psi4 stopped on: Saturday, 10 July 2021 03:03PM
    Psi4 wall time for execution: 0:04:29.32

*** Psi4 exiting successfully. Buy a developer a beer!
