
    -----------------------------------------------------------------------
          Psi4: An Open-Source Ab Initio Electronic Structure Package
                               Psi4 1.3.2 release

                         Git: Rev {} zzzzzzz 


    R. M. Parrish, L. A. Burns, D. G. A. Smith, A. C. Simmonett,
    A. E. DePrince III, E. G. Hohenstein, U. Bozkaya, A. Yu. Sokolov,
    R. Di Remigio, R. M. Richard, J. F. Gonthier, A. M. James,
    H. R. McAlexander, A. Kumar, M. Saitow, X. Wang, B. P. Pritchard,
    P. Verma, H. F. Schaefer III, K. Patkowski, R. A. King, E. F. Valeev,
    F. A. Evangelista, J. M. Turney, T. D. Crawford, and C. D. Sherrill,
    J. Chem. Theory Comput. 13(7) pp 3185--3197 (2017).
    (doi: 10.1021/acs.jctc.7b00174)


                         Additional Contributions by
    P. Kraus, H. Kruse, M. H. Lechner, M. C. Schieber, R. A. Shaw,
    A. Alenaizan, R. Galvelis, Z. L. Glick, S. Lehtola, and J. P. Misiewicz

    -----------------------------------------------------------------------


    Psi4 started on: Saturday, 10 July 2021 03:20PM

    Process ID: 1904460
    Host:       thinkpad
    PSIDATADIR: /usr/share/psi4
    Memory:     500.0 MiB
    Threads:    4
    
  ==> Input File <==

--------------------------------------------------------------------------
memory 8 gb

molecule {
symmetry c1
Cr        0.48028725377749    0.32716919378518    0.12128381663197
O         1.51332165941332    1.03448648135578   -0.78955553051410
O        -0.57831537187616    1.32157128739802    0.65757817076212
F        -0.29602430869141   -0.85637252313759   -0.76598418135575
F         1.28459076737678   -0.35182443940140    1.41848772447575
}

set basis def2-TZVP
set geom_maxiter 250

# Use a (75,302) quadrature grid
set dft_radial_points 75
set dft_spherical_points 302

# Very tight geometry optimization
set g_convergence gau_verytight
# Increase allowed number of geometry optimization steps
set geom_maxiter 250

# Use the Hueckel type guess
set guess huckel

my_dft = {
    "name": "my r2scan",
    "x_functionals": {"mgga_x_r2scan": {}},
    "c_functionals": {"mgga_c_r2scan": {}}
}
optimize('scf', dft_functional=my_dft)
--------------------------------------------------------------------------

  Memory set to   7.451 GiB by Python driver.
gradient() will perform analytic gradient computation.

*** tstart() called on thinkpad
*** at Sat Jul 10 15:20:48 2021

   => Loading Basis Set <=

    Name: DEF2-TZVP
    Role: ORBITAL
    Keyword: BASIS
    atoms 1   entry CR         line   872 file /usr/share/psi4/basis/def2-tzvp.gbs 
    atoms 2-3 entry O          line   189 file /usr/share/psi4/basis/def2-tzvp.gbs 
    atoms 4-5 entry F          line   222 file /usr/share/psi4/basis/def2-tzvp.gbs 


         ---------------------------------------------------------
                                   SCF
               by Justin Turney, Rob Parrish, Andy Simmonett
                          and Daniel G. A. Smith
                              RKS Reference
                        4 Threads,   7629 MiB Core
         ---------------------------------------------------------

  ==> Geometry <==

    Molecular point group: c1
    Full point group: C1

    Geometry (in Angstrom), charge = 0, multiplicity = 1:

       Center              X                  Y                   Z               Mass       
    ------------   -----------------  -----------------  -----------------  -----------------
         CR          -0.001007494106     0.066977222278    -0.014740872913    51.940506230000
         O            1.032026911530     0.774294509849    -0.925580220059    15.994914619570
         O           -1.059610119760     1.061379315891     0.521553481217    15.994914619570
         F           -0.777319056575    -1.116564494645    -0.902008870901    18.998403162730
         F            0.803296019493    -0.612016410908     1.282463034931    18.998403162730

  Running in c1 symmetry.

  Rotational constants: A =      0.15233  B =      0.13609  C =      0.12992 [cm^-1]
  Rotational constants: A =   4566.71939  B =   4079.72696  C =   3895.02954 [MHz]
  Nuclear repulsion =  355.181605515257786

  Charge       = 0
  Multiplicity = 1
  Electrons    = 58
  Nalpha       = 29
  Nbeta        = 29

  ==> Algorithm <==

  SCF Algorithm Type is DF.
  DIIS enabled.
  MOM disabled.
  Fractional occupation disabled.
  Guess Type is HUCKEL.
  Energy threshold   = 1.00e-08
  Density threshold  = 1.00e-08
  Integral threshold = 0.00e+00

  ==> Primary Basis <==

  Basis Set: DEF2-TZVP
    Blend: DEF2-TZVP
    Number of shells: 59
    Number of basis function: 169
    Number of Cartesian functions: 196
    Spherical Harmonics?: true
    Max angular momentum: 3

  ==> DFT Potential <==

   => Composite Functional: MY R2SCAN <= 

    Re-regularized SCAN exchange by Furness et al
    Re-regularized SCAN correlation by Furness et al
    J. W. Furness, A. D. Kaplan, J. Ning, J. P. Perdew, and J. Sun, J. Phys. Chem. Lett. 11, 8208 (2020)
    J. W. Furness, A. D. Kaplan, J. Ning, J. P. Perdew, and J. Sun, J. Phys. Chem. Lett. 11, 9248 (2020)

    Deriv               =              1
    GGA                 =           TRUE
    Meta                =           TRUE

    Exchange Hybrid     =          FALSE
    MP2 Hybrid          =          FALSE

   => Exchange Functionals <=

    1.0000   XC_mgga_x_r2scan

   => Correlation Functionals <=

    1.0000   XC_mgga_c_r2scan

   => Molecular Quadrature <=

    Radial Scheme          =       TREUTLER
    Pruning Scheme         =           FLAT
    Nuclear Scheme         =       TREUTLER

    BS radius alpha        =              1
    Pruning alpha          =              1
    Radial Points          =             75
    Spherical Points       =            302
    Total Points           =         113250
    Total Blocks           =            920
    Max Points             =            256
    Max Functions          =            163

   => Loading Basis Set <=

    Name: (DEF2-TZVP AUX)
    Role: JKFIT
    Keyword: DF_BASIS_SCF
    atoms 1   entry CR         line  1731 file /usr/share/psi4/basis/def2-tzvp-jkfit.gbs 
    atoms 2-3 entry O          line   323 file /usr/share/psi4/basis/def2-tzvp-jkfit.gbs 
    atoms 4-5 entry F          line   383 file /usr/share/psi4/basis/def2-tzvp-jkfit.gbs 

  ==> Pre-Iterations <==

   -------------------------------------------------------
    Irrep   Nso     Nmo     Nalpha   Nbeta   Ndocc  Nsocc
   -------------------------------------------------------
     A        169     169       0       0       0       0
   -------------------------------------------------------
    Total     169     169      29      29      29       0
   -------------------------------------------------------

  ==> Integral Setup <==

  DFHelper Memory: AOs need 0.130 GiB; user supplied 4.653 GiB. Using in-core AOs.

  ==> MemDFJK: Density-Fitted J/K Matrices <==

    J tasked:                   Yes
    K tasked:                    No
    wK tasked:                   No
    OpenMP threads:               4
    Memory [MiB]:              4765
    Algorithm:                 Core
    Schwarz Cutoff:           1E-12
    Mask sparsity (%):       2.9341
    Fitting Condition:        1E-10

   => Auxiliary Basis Set <=

  Basis Set: (DEF2-TZVP AUX)
    Blend: DEF2-TZVP-JKFIT
    Number of shells: 158
    Number of basis function: 572
    Number of Cartesian functions: 749
    Spherical Harmonics?: true
    Max angular momentum: 6

  Cached 100.0% of DFT collocation blocks in 0.934 [GiB].

  Minimum eigenvalue in the overlap matrix is 1.9987387532E-03.
  Using Symmetric Orthogonalization.

  SCF Guess: Huckel guess via on-the-fly atomic UHF (doi:10.1021/acs.jctc.8b01089).

  ==> Iterations <==

                           Total Energy        Delta E     RMS |[F,P]|

   @DF-RKS iter   1: -1392.92917825798872   -1.39293e+03   1.48872e-02 DIIS
   @DF-RKS iter   2: -1368.47481482730359    2.44544e+01   5.00760e-02 DIIS
   @DF-RKS iter   3: -1390.06797259327618   -2.15932e+01   2.59116e-02 DIIS
   @DF-RKS iter   4: -1389.66167331661495    4.06299e-01   2.53120e-02 DIIS
   @DF-RKS iter   5: -1394.50133547276960   -4.83966e+00   5.39080e-03 DIIS
   @DF-RKS iter   6: -1394.69392657276057   -1.92591e-01   1.69588e-03 DIIS
   @DF-RKS iter   7: -1394.71517503760560   -2.12485e-02   7.99455e-04 DIIS
   @DF-RKS iter   8: -1394.72065330011560   -5.47826e-03   1.66711e-04 DIIS
   @DF-RKS iter   9: -1394.72087864675177   -2.25347e-04   6.05542e-05 DIIS
   @DF-RKS iter  10: -1394.72089857169249   -1.99249e-05   3.19477e-05 DIIS
   @DF-RKS iter  11: -1394.72090915052740   -1.05788e-05   1.13282e-05 DIIS
   @DF-RKS iter  12: -1394.72091016265267   -1.01213e-06   1.53935e-06 DIIS
   @DF-RKS iter  13: -1394.72091017857724   -1.59246e-08   2.85908e-07 DIIS
   @DF-RKS iter  14: -1394.72091017910088   -5.23642e-10   1.42963e-07 DIIS
   @DF-RKS iter  15: -1394.72091017929870   -1.97815e-10   4.15728e-08 DIIS
   @DF-RKS iter  16: -1394.72091017931234   -1.36424e-11   5.33404e-09 DIIS
  Energy and wave function converged.


  ==> Post-Iterations <==

    Orbital Energies [Eh]
    ---------------------

    Doubly Occupied:                                                      

       1A   -215.477837     2A    -24.788196     3A    -24.537143  
       4A    -24.537139     5A    -21.059988     6A    -21.059782  
       7A    -21.056288     8A    -19.046279     9A    -19.046278  
      10A     -3.024909    11A     -1.976656    12A     -1.976093  
      13A     -1.972127    14A     -1.173306    15A     -1.167814  
      16A     -0.955248    17A     -0.942931    18A     -0.502574  
      19A     -0.496094    20A     -0.477763    21A     -0.476802  
      22A     -0.474760    23A     -0.436175    24A     -0.431464  
      25A     -0.413224    26A     -0.389199    27A     -0.379061  
      28A     -0.375514    29A     -0.336245  

    Virtual:                                                              

      30A     -0.216472    31A     -0.198585    32A     -0.168507  
      33A     -0.128532    34A     -0.111157    35A      0.007955  
      36A      0.122559    37A      0.123340    38A      0.125595  
      39A      0.131968    40A      0.132029    41A      0.183149  
      42A      0.200453    43A      0.202939    44A      0.203085  
      45A      0.429459    46A      0.438546    47A      0.441409  
      48A      0.510639    49A      0.514744    50A      0.543971  
      51A      0.545006    52A      0.556775    53A      0.567328  
      54A      0.574427    55A      0.589658    56A      0.601431  
      57A      0.625868    58A      0.675911    59A      0.713990  
      60A      0.733130    61A      0.746477    62A      0.821780  
      63A      0.900903    64A      1.038956    65A      1.045249  
      66A      1.207020    67A      1.243647    68A      1.270014  
      69A      1.318446    70A      1.370165    71A      1.400357  
      72A      1.516246    73A      1.522648    74A      1.543924  
      75A      1.544107    76A      1.614984    77A      1.739708  
      78A      1.749471    79A      1.789554    80A      1.865317  
      81A      1.880279    82A      1.971492    83A      1.982497  
      84A      2.028937    85A      2.045191    86A      2.164925  
      87A      2.175035    88A      2.176718    89A      2.340074  
      90A      2.377911    91A      2.410509    92A      2.427101  
      93A      2.529853    94A      2.547774    95A      2.587538  
      96A      2.689040    97A      2.705935    98A      2.749227  
      99A      2.827463   100A      2.878004   101A      2.937659  
     102A      2.967656   103A      3.037701   104A      3.067092  
     105A      3.083058   106A      3.134180   107A      3.162828  
     108A      3.281244   109A      3.289872   110A      3.293690  
     111A      3.318172   112A      3.817447   113A      3.854918  
     114A      4.069974   115A      4.085874   116A      4.348667  
     117A      4.393587   118A      5.121908   119A      5.129790  
     120A      5.140904   121A      5.141177   122A      5.143401  
     123A      5.148466   124A      5.168696   125A      5.187384  
     126A      5.430313   127A      5.432075   128A      5.443371  
     129A      5.478828   130A      5.978019   131A      6.065340  
     132A      6.218644   133A      6.249833   134A      6.307495  
     135A      6.332732   136A      6.449483   137A      6.518746  
     138A      6.568532   139A      6.662181   140A      6.895783  
     141A      6.898758   142A      6.899511   143A      6.907674  
     144A      6.912726   145A      6.912863   146A      6.912868  
     147A      6.914050   148A      6.931544   149A      6.941728  
     150A      6.970308   151A      6.974140   152A      7.105210  
     153A      7.112173   154A      7.157252   155A      7.238786  
     156A      8.268305   157A      8.291111   158A      8.337627  
     159A      8.347308   160A      8.371233   161A      8.437495  
     162A      8.550670   163A      8.563159   164A      8.886751  
     165A      8.945114   166A     43.560542   167A     43.582907  
     168A     56.972945   169A     57.066892  

    Final Occupation by Irrep:
              A 
    DOCC [    29 ]

  @DF-RKS Final Energy: -1394.72091017931234

   => Energetics <=

    Nuclear Repulsion Energy =            355.1816055152577860
    One-Electron Energy =               -2627.0114169513099114
    Two-Electron Energy =                 963.5374015844887481
    DFT Exchange-Correlation Energy =     -86.4285003277487647
    Empirical Dispersion Energy =           0.0000000000000000
    VV10 Nonlocal Energy =                  0.0000000000000000
    Total Energy =                      -1394.7209101793123409

Computation Completed


Properties will be evaluated at   0.000000,   0.000000,   0.000000 [a0]

Properties computed using the SCF density matrix

  Nuclear Dipole Moment: [e a0]
     X:    -0.0209      Y:     1.3901      Z:    -0.3060

  Electronic Dipole Moment: [e a0]
     X:     0.0226      Y:    -1.5039      Z:     0.3310

  Dipole Moment: [e a0]
     X:     0.0017      Y:    -0.1138      Z:     0.0251     Total:     0.1165

  Dipole Moment: [D]
     X:     0.0043      Y:    -0.2893      Z:     0.0637     Total:     0.2962


*** tstop() called on thinkpad at Sat Jul 10 15:21:01 2021
Module time:
	user time   =      41.66 seconds =       0.69 minutes
	system time =       0.59 seconds =       0.01 minutes
	total time  =         13 seconds =       0.22 minutes
Total time:
	user time   =      41.66 seconds =       0.69 minutes
	system time =       0.59 seconds =       0.01 minutes
	total time  =         13 seconds =       0.22 minutes

*** tstart() called on thinkpad
*** at Sat Jul 10 15:21:01 2021


         ------------------------------------------------------------
                                   SCF GRAD                          
                          Rob Parrish, Justin Turney,                
                       Andy Simmonett, and Alex Sokolov              
         ------------------------------------------------------------

  ==> Geometry <==

    Molecular point group: c1
    Full point group: C1

    Geometry (in Angstrom), charge = 0, multiplicity = 1:

       Center              X                  Y                   Z               Mass       
    ------------   -----------------  -----------------  -----------------  -----------------
         CR          -0.001007494106     0.066977222278    -0.014740872913    51.940506230000
         O            1.032026911530     0.774294509849    -0.925580220059    15.994914619570
         O           -1.059610119760     1.061379315891     0.521553481217    15.994914619570
         F           -0.777319056575    -1.116564494645    -0.902008870901    18.998403162730
         F            0.803296019493    -0.612016410908     1.282463034931    18.998403162730

  Nuclear repulsion =  355.181605515257786

  ==> Basis Set <==

  Basis Set: DEF2-TZVP
    Blend: DEF2-TZVP
    Number of shells: 59
    Number of basis function: 169
    Number of Cartesian functions: 196
    Spherical Harmonics?: true
    Max angular momentum: 3

  ==> DFJKGrad: Density-Fitted SCF Gradients <==

    Gradient:                    1
    J tasked:                  Yes
    K tasked:                   No
    wK tasked:                  No
    OpenMP threads:              4
    Integrals threads:           4
    Memory [MiB]:             5722
    Schwarz Cutoff:          0E+00
    Fitting Condition:       1E-10

   => Auxiliary Basis Set <=

  Basis Set: (DEF2-TZVP AUX)
    Blend: DEF2-TZVP-JKFIT
    Number of shells: 158
    Number of basis function: 572
    Number of Cartesian functions: 749
    Spherical Harmonics?: true
    Max angular momentum: 6

  ==> DFT Potential <==

   => Composite Functional: MY R2SCAN <= 

    Re-regularized SCAN exchange by Furness et al
    Re-regularized SCAN correlation by Furness et al
    J. W. Furness, A. D. Kaplan, J. Ning, J. P. Perdew, and J. Sun, J. Phys. Chem. Lett. 11, 8208 (2020)
    J. W. Furness, A. D. Kaplan, J. Ning, J. P. Perdew, and J. Sun, J. Phys. Chem. Lett. 11, 9248 (2020)

    Deriv               =              1
    GGA                 =           TRUE
    Meta                =           TRUE

    Exchange Hybrid     =          FALSE
    MP2 Hybrid          =          FALSE

   => Exchange Functionals <=

    1.0000   XC_mgga_x_r2scan

   => Correlation Functionals <=

    1.0000   XC_mgga_c_r2scan

   => Molecular Quadrature <=

    Radial Scheme          =       TREUTLER
    Pruning Scheme         =           FLAT
    Nuclear Scheme         =       TREUTLER

    BS radius alpha        =              1
    Pruning alpha          =              1
    Radial Points          =             75
    Spherical Points       =            302
    Total Points           =         113250
    Total Blocks           =            920
    Max Points             =            256
    Max Functions          =            163


  -Total Gradient:
     Atom            X                  Y                   Z
    ------   -----------------  -----------------  -----------------
       1        0.000162203427    -0.010819233963     0.002381572033
       2       -0.003968527762    -0.010585156388     0.005316431747
       3        0.004303792711    -0.011720084819    -0.000407082182
       4        0.010811436342     0.017956523465     0.012063913016
       5       -0.011244984039     0.010915984232    -0.018419013533


*** tstop() called on thinkpad at Sat Jul 10 15:21:04 2021
Module time:
	user time   =       9.73 seconds =       0.16 minutes
	system time =       0.05 seconds =       0.00 minutes
	total time  =          3 seconds =       0.05 minutes
Total time:
	user time   =      51.39 seconds =       0.86 minutes
	system time =       0.64 seconds =       0.01 minutes
	total time  =         16 seconds =       0.27 minutes

			-----------------------------------------
			 OPTKING 2.0: for geometry optimizations 
			  - R.A. King,  Bethel University        
			-----------------------------------------

	Internal coordinates to be generated automatically.
	Detected frag 1 with atoms:  1 2 3 4 5
	---Fragment 1 Bond Connectivity---
	 1 : 2 3 4 5
	 2 : 1
	 3 : 1
	 4 : 1
	 5 : 1

	---Fragment 1 Geometry and Gradient---
	 CR         -0.0019038879        0.1265686067       -0.0278562127
	 O           1.9502482169        1.4632045641       -1.7490931231
	 O          -2.0023729261        2.0057162223        0.9855932393
	 F          -1.4689201290       -2.1100010963       -1.7045497287
	 F           1.5180094745       -1.1565434009        2.4235039020
	             0.0001622034       -0.0108192340        0.0023815720
	            -0.0039685278       -0.0105851564        0.0053164317
	             0.0043037927       -0.0117200848       -0.0004070822
	             0.0108114363        0.0179565235        0.0120639130
	            -0.0112449840        0.0109159842       -0.0184190135

	Previous optimization step data not found.  Starting new optimization.

	---Fragment 1 Intrafragment Coordinates---
	 - Coordinate -           - BOHR/RAD -       - ANG/DEG -
	 R(1,2)           =         2.925773	       1.548253
	 R(1,3)           =         2.925774	       1.548253
	 R(1,4)           =         3.156847	       1.670531
	 R(1,5)           =         3.156846	       1.670531
	 B(2,1,3)         =         1.946113	     111.504060
	 B(2,1,4)         =         1.897868	     108.739823
	 B(2,1,5)         =         1.897867	     108.739770
	 B(3,1,4)         =         1.897872	     108.740061
	 B(3,1,5)         =         1.897872	     108.740055
	 B(4,1,5)         =         1.926457	     110.377858

	Current energy   :     -1394.7209101793

	Generating empirical Hessian (Schlegel '84) for each fragment.
	Taking RFO optimization step.
	Going to follow RFO solution 1.
	Using RFO vector 1.
	Norm of target step-size    0.06725
	Projected energy change by RFO approximation:        -0.0014875992

	Back-transformation to cartesian coordinates...
	Successfully converged to displaced geometry.

	--- Internal Coordinate Step in ANG or DEG, aJ/ANG or AJ/DEG ---
	 ---------------------------------------------------------------------------
	   Coordinate                Previous        Force       Change         New 
	   ----------                --------       ------       ------       ------
	    1 R(1,2)          =      1.548253     0.083387     0.001948     1.550201
	    2 R(1,3)          =      1.548253     0.083385     0.001948     1.550201
	    3 R(1,4)          =      1.670531     0.203090     0.009697     1.680229
	    4 R(1,5)          =      1.670531     0.203091     0.009697     1.680229
	    5 B(2,1,3)        =    111.504060    -0.001013    -3.020908   108.483152
	    6 B(2,1,4)        =    108.739823     0.000295     0.878582   109.618405
	    7 B(2,1,5)        =    108.739770     0.000295     0.878632   109.618401
	    8 B(3,1,4)        =    108.740061     0.000295     0.878371   109.618431
	    9 B(3,1,5)        =    108.740055     0.000295     0.878384   109.618439
	   10 B(4,1,5)        =    110.377858    -0.000175    -0.515353   109.862506
	 ---------------------------------------------------------------------------
	Successfully symmetrized geometry.

  ==> Convergence Check <==

  Measures of convergence in internal coordinates in au.
  Criteria marked as inactive (o), active & met (*), and active & unmet ( ).
  --------------------------------------------------------------------------------------------- ~
   Step     Total Energy     Delta E     MAX Force     RMS Force      MAX Disp      RMS Disp    ~
  --------------------------------------------------------------------------------------------- ~
    Convergence Criteria             o    2.00e-06 *    1.00e-06 *    6.00e-06 *    4.00e-06 *  ~
  --------------------------------------------------------------------------------------------- ~
      1   -1394.72091018   -1.39e+03 o    2.47e-02      1.29e-02      5.27e-02      2.12e-02    ~
  ---------------------------------------------------------------------------------------------

	Writing optimization data to binary file.
	Structure for next step:
	Cartesian Geometry (in Angstrom)
	   CR    -0.0008721139   0.0580556520  -0.0127779726
	    O     1.0138140099   0.8015814728  -0.9187048372
	    O    -1.0421429314   1.0837664438   0.5037439797
	    F    -0.7791078310  -1.1376090316  -0.9004174410
	    F     0.8056951270  -0.6317243952   1.2898428236
			--------------------------
			 OPTKING Finished Execution 
			--------------------------

    Structure for next step:
    Molecular point group: c1
    Full point group: C1

    Geometry (in Angstrom), charge = 0, multiplicity = 1:

    CR          -0.000927060263     0.061689714794    -0.013577651625
    O            1.013759067591     0.805215538511    -0.919504519738
    O           -1.042197881861     1.087400510713     0.502944302724
    F           -0.779162780364    -1.133974973419    -0.901217123472
    F            0.805640183817    -0.628090335112     1.289043149730

gradient() will perform analytic gradient computation.

*** tstart() called on thinkpad
*** at Sat Jul 10 15:21:04 2021

   => Loading Basis Set <=

    Name: DEF2-TZVP
    Role: ORBITAL
    Keyword: BASIS
    atoms 1   entry CR         line   872 file /usr/share/psi4/basis/def2-tzvp.gbs 
    atoms 2-3 entry O          line   189 file /usr/share/psi4/basis/def2-tzvp.gbs 
    atoms 4-5 entry F          line   222 file /usr/share/psi4/basis/def2-tzvp.gbs 


         ---------------------------------------------------------
                                   SCF
               by Justin Turney, Rob Parrish, Andy Simmonett
                          and Daniel G. A. Smith
                              RKS Reference
                        4 Threads,   7629 MiB Core
         ---------------------------------------------------------

  ==> Geometry <==

    Molecular point group: c1
    Full point group: C1

    Geometry (in Angstrom), charge = 0, multiplicity = 1:

       Center              X                  Y                   Z               Mass       
    ------------   -----------------  -----------------  -----------------  -----------------
         CR          -0.000927060263     0.061689714794    -0.013577651625    51.940506230000
         O            1.013759067591     0.805215538511    -0.919504519738    15.994914619570
         O           -1.042197881861     1.087400510713     0.502944302724    15.994914619570
         F           -0.779162780364    -1.133974973419    -0.901217123472    18.998403162730
         F            0.805640183817    -0.628090335112     1.289043149730    18.998403162730

  Running in c1 symmetry.

  Rotational constants: A =      0.15078  B =      0.13763  C =      0.12671 [cm^-1]
  Rotational constants: A =   4520.34072  B =   4126.12676  C =   3798.79174 [MHz]
  Nuclear repulsion =  353.888057493230804

  Charge       = 0
  Multiplicity = 1
  Electrons    = 58
  Nalpha       = 29
  Nbeta        = 29

  ==> Algorithm <==

  SCF Algorithm Type is DF.
  DIIS enabled.
  MOM disabled.
  Fractional occupation disabled.
  Guess Type is READ.
  Energy threshold   = 1.00e-08
  Density threshold  = 1.00e-08
  Integral threshold = 0.00e+00

  ==> Primary Basis <==

  Basis Set: DEF2-TZVP
    Blend: DEF2-TZVP
    Number of shells: 59
    Number of basis function: 169
    Number of Cartesian functions: 196
    Spherical Harmonics?: true
    Max angular momentum: 3

  ==> DFT Potential <==

   => Composite Functional: MY R2SCAN <= 

    Re-regularized SCAN exchange by Furness et al
    Re-regularized SCAN correlation by Furness et al
    J. W. Furness, A. D. Kaplan, J. Ning, J. P. Perdew, and J. Sun, J. Phys. Chem. Lett. 11, 8208 (2020)
    J. W. Furness, A. D. Kaplan, J. Ning, J. P. Perdew, and J. Sun, J. Phys. Chem. Lett. 11, 9248 (2020)

    Deriv               =              1
    GGA                 =           TRUE
    Meta                =           TRUE

    Exchange Hybrid     =          FALSE
    MP2 Hybrid          =          FALSE

   => Exchange Functionals <=

    1.0000   XC_mgga_x_r2scan

   => Correlation Functionals <=

    1.0000   XC_mgga_c_r2scan

   => Molecular Quadrature <=

    Radial Scheme          =       TREUTLER
    Pruning Scheme         =           FLAT
    Nuclear Scheme         =       TREUTLER

    BS radius alpha        =              1
    Pruning alpha          =              1
    Radial Points          =             75
    Spherical Points       =            302
    Total Points           =         113250
    Total Blocks           =            921
    Max Points             =            256
    Max Functions          =            162

   => Loading Basis Set <=

    Name: (DEF2-TZVP AUX)
    Role: JKFIT
    Keyword: DF_BASIS_SCF
    atoms 1   entry CR         line  1731 file /usr/share/psi4/basis/def2-tzvp-jkfit.gbs 
    atoms 2-3 entry O          line   323 file /usr/share/psi4/basis/def2-tzvp-jkfit.gbs 
    atoms 4-5 entry F          line   383 file /usr/share/psi4/basis/def2-tzvp-jkfit.gbs 

   => Loading Basis Set <=

    Name: DEF2-TZVP
    Role: ORBITAL
    Keyword: BASIS
    atoms 1   entry CR         line   872 file /usr/share/psi4/basis/def2-tzvp.gbs 
    atoms 2-3 entry O          line   189 file /usr/share/psi4/basis/def2-tzvp.gbs 
    atoms 4-5 entry F          line   222 file /usr/share/psi4/basis/def2-tzvp.gbs 

  Reading orbitals from file 180, no projection.

  ==> Pre-Iterations <==

   -------------------------------------------------------
    Irrep   Nso     Nmo     Nalpha   Nbeta   Ndocc  Nsocc
   -------------------------------------------------------
     A        169     169       0       0       0       0
   -------------------------------------------------------
    Total     169     169      29      29      29       0
   -------------------------------------------------------

  ==> Integral Setup <==

  DFHelper Memory: AOs need 0.130 GiB; user supplied 4.654 GiB. Using in-core AOs.

  ==> MemDFJK: Density-Fitted J/K Matrices <==

    J tasked:                   Yes
    K tasked:                    No
    wK tasked:                   No
    OpenMP threads:               4
    Memory [MiB]:              4766
    Algorithm:                 Core
    Schwarz Cutoff:           1E-12
    Mask sparsity (%):       3.0461
    Fitting Condition:        1E-10

   => Auxiliary Basis Set <=

  Basis Set: (DEF2-TZVP AUX)
    Blend: DEF2-TZVP-JKFIT
    Number of shells: 158
    Number of basis function: 572
    Number of Cartesian functions: 749
    Spherical Harmonics?: true
    Max angular momentum: 6

  Cached 100.0% of DFT collocation blocks in 0.934 [GiB].

  Minimum eigenvalue in the overlap matrix is 1.9511222640E-03.
  Using Symmetric Orthogonalization.

  SCF Guess: Orbitals guess was supplied from a previous computation.

  ==> Iterations <==

                           Total Energy        Delta E     RMS |[F,P]|

   @DF-RKS iter   0: -1394.71492133392871   -1.39471e+03   5.63816e-04 
   @DF-RKS iter   1: -1394.72170064321176   -6.77931e-03   2.53471e-04 DIIS
   @DF-RKS iter   2: -1394.69014476354278    3.15559e-02   1.99721e-03 DIIS
   @DF-RKS iter   3: -1394.72202511805972   -3.18804e-02   1.53265e-04 DIIS
   @DF-RKS iter   4: -1394.72226198181897   -2.36864e-04   3.00085e-05 DIIS
   @DF-RKS iter   5: -1394.72226981640893   -7.83459e-06   7.44646e-06 DIIS
   @DF-RKS iter   6: -1394.72227010637675   -2.89968e-07   3.70032e-06 DIIS
   @DF-RKS iter   7: -1394.72227019405000   -8.76732e-08   1.31489e-06 DIIS
   @DF-RKS iter   8: -1394.72227020259629   -8.54629e-09   9.03637e-07 DIIS
   @DF-RKS iter   9: -1394.72227021026015   -7.66386e-09   1.62937e-07 DIIS
   @DF-RKS iter  10: -1394.72227021046933   -2.09184e-10   1.09927e-08 DIIS
   @DF-RKS iter  11: -1394.72227021046683    2.50111e-12   1.46146e-09 DIIS
  Energy and wave function converged.


  ==> Post-Iterations <==

    Orbital Energies [Eh]
    ---------------------

    Doubly Occupied:                                                      

       1A   -215.480041     2A    -24.789804     3A    -24.535623  
       4A    -24.535619     5A    -21.061699     6A    -21.061233  
       7A    -21.058126     8A    -19.048103     9A    -19.048102  
      10A     -3.025643    11A     -1.977332    12A     -1.976890  
      13A     -1.971888    14A     -1.171017    15A     -1.165810  
      16A     -0.955502    17A     -0.945002    18A     -0.500814  
      19A     -0.493268    20A     -0.475983    21A     -0.474448  
      22A     -0.473589    23A     -0.435772    24A     -0.429507  
      25A     -0.413653    26A     -0.391256    27A     -0.379274  
      28A     -0.377546    29A     -0.335849  

    Virtual:                                                              

      30A     -0.216299    31A     -0.201707    32A     -0.169432  
      33A     -0.135984    34A     -0.110746    35A      0.007015  
      36A      0.122328    37A      0.122849    38A      0.126323  
      39A      0.131430    40A      0.131893    41A      0.181027  
      42A      0.198742    43A      0.201296    44A      0.206054  
      45A      0.430851    46A      0.437161    47A      0.440329  
      48A      0.510353    49A      0.512664    50A      0.539648  
      51A      0.546776    52A      0.555562    53A      0.565862  
      54A      0.576129    55A      0.588205    56A      0.601255  
      57A      0.629919    58A      0.676801    59A      0.712524  
      60A      0.731106    61A      0.746489    62A      0.822488  
      63A      0.899714    64A      1.041966    65A      1.042683  
      66A      1.202532    67A      1.236306    68A      1.271272  
      69A      1.313154    70A      1.374693    71A      1.397065  
      72A      1.516077    73A      1.533704    74A      1.540101  
      75A      1.540694    76A      1.605787    77A      1.725217  
      78A      1.751645    79A      1.791220    80A      1.873182  
      81A      1.879967    82A      1.973725    83A      1.981188  
      84A      2.031551    85A      2.042413    86A      2.156626  
      87A      2.160765    88A      2.183789    89A      2.337152  
      90A      2.379461    91A      2.403532    92A      2.424518  
      93A      2.526610    94A      2.553687    95A      2.581868  
      96A      2.683811    97A      2.684512    98A      2.731751  
      99A      2.833039   100A      2.865186   101A      2.927268  
     102A      2.986357   103A      3.051701   104A      3.060097  
     105A      3.081712   106A      3.132338   107A      3.151617  
     108A      3.276865   109A      3.287341   110A      3.292822  
     111A      3.312246   112A      3.815166   113A      3.840531  
     114A      4.070238   115A      4.076903   116A      4.324306  
     117A      4.374009   118A      5.119688   119A      5.127971  
     120A      5.139961   121A      5.140127   122A      5.142578  
     123A      5.147239   124A      5.166110   125A      5.184756  
     126A      5.416478   127A      5.429227   128A      5.449969  
     129A      5.473298   130A      5.991874   131A      6.040809  
     132A      6.220640   133A      6.249884   134A      6.305680  
     135A      6.328074   136A      6.455030   137A      6.520960  
     138A      6.555858   139A      6.658014   140A      6.898427  
     141A      6.900628   142A      6.901449   143A      6.909154  
     144A      6.915021   145A      6.915097   146A      6.915099  
     147A      6.916131   148A      6.929283   149A      6.938674  
     150A      6.968843   151A      6.969492   152A      7.093142  
     153A      7.106694   154A      7.147443   155A      7.239964  
     156A      8.269744   157A      8.292717   158A      8.335122  
     159A      8.348420   160A      8.369373   161A      8.432139  
     162A      8.536931   163A      8.563378   164A      8.869875  
     165A      8.932323   166A     43.566942   167A     43.569618  
     168A     56.973034   169A     57.053972  

    Final Occupation by Irrep:
              A 
    DOCC [    29 ]

  @DF-RKS Final Energy: -1394.72227021046683

   => Energetics <=

    Nuclear Repulsion Energy =            353.8880574932308036
    One-Electron Energy =               -2624.4307733101422855
    Two-Electron Energy =                 962.2376872633496987
    DFT Exchange-Correlation Energy =     -86.4172416569050483
    Empirical Dispersion Energy =           0.0000000000000000
    VV10 Nonlocal Energy =                  0.0000000000000000
    Total Energy =                      -1394.7222702104668315

Computation Completed


Properties will be evaluated at   0.000000,   0.000000,   0.000000 [a0]

Properties computed using the SCF density matrix

  Nuclear Dipole Moment: [e a0]
     X:    -0.0217      Y:     1.4417      Z:    -0.3173

  Electronic Dipole Moment: [e a0]
     X:     0.0232      Y:    -1.5413      Z:     0.3392

  Dipole Moment: [e a0]
     X:     0.0015      Y:    -0.0996      Z:     0.0219     Total:     0.1020

  Dipole Moment: [D]
     X:     0.0038      Y:    -0.2533      Z:     0.0557     Total:     0.2594


*** tstop() called on thinkpad at Sat Jul 10 15:21:14 2021
Module time:
	user time   =      30.98 seconds =       0.52 minutes
	system time =       0.13 seconds =       0.00 minutes
	total time  =         10 seconds =       0.17 minutes
Total time:
	user time   =      82.43 seconds =       1.37 minutes
	system time =       0.78 seconds =       0.01 minutes
	total time  =         26 seconds =       0.43 minutes

*** tstart() called on thinkpad
*** at Sat Jul 10 15:21:14 2021


         ------------------------------------------------------------
                                   SCF GRAD                          
                          Rob Parrish, Justin Turney,                
                       Andy Simmonett, and Alex Sokolov              
         ------------------------------------------------------------

  ==> Geometry <==

    Molecular point group: c1
    Full point group: C1

    Geometry (in Angstrom), charge = 0, multiplicity = 1:

       Center              X                  Y                   Z               Mass       
    ------------   -----------------  -----------------  -----------------  -----------------
         CR          -0.000927060263     0.061689714794    -0.013577651625    51.940506230000
         O            1.013759067591     0.805215538511    -0.919504519738    15.994914619570
         O           -1.042197881861     1.087400510713     0.502944302724    15.994914619570
         F           -0.779162780364    -1.133974973419    -0.901217123472    18.998403162730
         F            0.805640183817    -0.628090335112     1.289043149730    18.998403162730

  Nuclear repulsion =  353.888057493230860

  ==> Basis Set <==

  Basis Set: DEF2-TZVP
    Blend: DEF2-TZVP
    Number of shells: 59
    Number of basis function: 169
    Number of Cartesian functions: 196
    Spherical Harmonics?: true
    Max angular momentum: 3

  ==> DFJKGrad: Density-Fitted SCF Gradients <==

    Gradient:                    1
    J tasked:                  Yes
    K tasked:                   No
    wK tasked:                  No
    OpenMP threads:              4
    Integrals threads:           4
    Memory [MiB]:             5722
    Schwarz Cutoff:          0E+00
    Fitting Condition:       1E-10

   => Auxiliary Basis Set <=

  Basis Set: (DEF2-TZVP AUX)
    Blend: DEF2-TZVP-JKFIT
    Number of shells: 158
    Number of basis function: 572
    Number of Cartesian functions: 749
    Spherical Harmonics?: true
    Max angular momentum: 6

  ==> DFT Potential <==

   => Composite Functional: MY R2SCAN <= 

    Re-regularized SCAN exchange by Furness et al
    Re-regularized SCAN correlation by Furness et al
    J. W. Furness, A. D. Kaplan, J. Ning, J. P. Perdew, and J. Sun, J. Phys. Chem. Lett. 11, 8208 (2020)
    J. W. Furness, A. D. Kaplan, J. Ning, J. P. Perdew, and J. Sun, J. Phys. Chem. Lett. 11, 9248 (2020)

    Deriv               =              1
    GGA                 =           TRUE
    Meta                =           TRUE

    Exchange Hybrid     =          FALSE
    MP2 Hybrid          =          FALSE

   => Exchange Functionals <=

    1.0000   XC_mgga_x_r2scan

   => Correlation Functionals <=

    1.0000   XC_mgga_c_r2scan

   => Molecular Quadrature <=

    Radial Scheme          =       TREUTLER
    Pruning Scheme         =           FLAT
    Nuclear Scheme         =       TREUTLER

    BS radius alpha        =              1
    Pruning alpha          =              1
    Radial Points          =             75
    Spherical Points       =            302
    Total Points           =         113250
    Total Blocks           =            921
    Max Points             =            256
    Max Functions          =            162


  -Total Gradient:
     Atom            X                  Y                   Z
    ------   -----------------  -----------------  -----------------
       1        0.000247704389    -0.016478659409     0.003626989676
       2       -0.004639390721    -0.003119542217     0.004077443391
       3        0.004752438517    -0.004408483986    -0.002420492978
       4        0.007832056886     0.012362856650     0.008867602100
       5       -0.008127067526     0.007268622723    -0.013188568980


*** tstop() called on thinkpad at Sat Jul 10 15:21:17 2021
Module time:
	user time   =       9.67 seconds =       0.16 minutes
	system time =       0.04 seconds =       0.00 minutes
	total time  =          3 seconds =       0.05 minutes
Total time:
	user time   =      92.11 seconds =       1.54 minutes
	system time =       0.82 seconds =       0.01 minutes
	total time  =         29 seconds =       0.48 minutes

			-----------------------------------------
			 OPTKING 2.0: for geometry optimizations 
			  - R.A. King,  Bethel University        
			-----------------------------------------

	Previous internal coordinate definitions found.
	---Fragment 1 Geometry and Gradient---
	 CR         -0.0017518900        0.1165766657       -0.0256580430
	 O           1.9157269949        1.5216368397       -1.7376117134
	 O          -1.9694685652        2.0548891539        0.9504269885
	 F          -1.4724042620       -2.1429021329       -1.7030535429
	 F           1.5224393031       -1.1869187154        2.4359385169
	             0.0002477044       -0.0164786594        0.0036269897
	            -0.0046393907       -0.0031195422        0.0040774434
	             0.0047524385       -0.0044084840       -0.0024204930
	             0.0078320569        0.0123628566        0.0088676021
	            -0.0081270675        0.0072686227       -0.0131885690

	---Fragment 1 Intrafragment Coordinates---
	 - Coordinate -           - BOHR/RAD -       - ANG/DEG -
	 R(1,2)           =         2.929455	       1.550201
	 R(1,3)           =         2.929455	       1.550201
	 R(1,4)           =         3.175172	       1.680229
	 R(1,5)           =         3.175172	       1.680229
	 B(2,1,3)         =         1.893388	     108.483152
	 B(2,1,4)         =         1.913202	     109.618405
	 B(2,1,5)         =         1.913202	     109.618401
	 B(3,1,4)         =         1.913203	     109.618431
	 B(3,1,5)         =         1.913203	     109.618439
	 B(4,1,5)         =         1.917462	     109.862506

	Current energy   :     -1394.7222702105

	Energy change for the previous step:
		Projected    :        -0.0014875992
		Actual       :        -0.0013600312
	Energy ratio indicates good step: Trust radius increased to 1.000e+00.


	Performing BFGS update.
	Previous computed or guess Hessian on step 1.
	Steps to be used in Hessian update: 1
	Taking RFO optimization step.
	Going to follow RFO solution 1.
	Using RFO vector 1.
	Norm of target step-size    0.04549
	Projected energy change by RFO approximation:        -0.0010392074

	Back-transformation to cartesian coordinates...
	Successfully converged to displaced geometry.

	--- Internal Coordinate Step in ANG or DEG, aJ/ANG or AJ/DEG ---
	 ---------------------------------------------------------------------------
	   Coordinate                Previous        Force       Change         New 
	   ----------                --------       ------       ------       ------
	    1 R(1,2)          =      1.550201     0.052663     0.002551     1.552751
	    2 R(1,3)          =      1.550201     0.052662     0.002551     1.552751
	    3 R(1,4)          =      1.680229     0.145204     0.013844     1.694073
	    4 R(1,5)          =      1.680229     0.145205     0.013844     1.694073
	    5 B(2,1,3)        =    108.483152     0.000219    -0.296401   108.186751
	    6 B(2,1,4)        =    109.618405     0.000006     0.381833   110.000238
	    7 B(2,1,5)        =    109.618401     0.000006     0.381858   110.000260
	    8 B(3,1,4)        =    109.618431     0.000006     0.381716   110.000147
	    9 B(3,1,5)        =    109.618439     0.000006     0.381715   110.000153
	   10 B(4,1,5)        =    109.862506    -0.000237    -1.213508   108.648998
	 ---------------------------------------------------------------------------
	Successfully symmetrized geometry.

  ==> Convergence Check <==

  Measures of convergence in internal coordinates in au.
  Criteria marked as inactive (o), active & met (*), and active & unmet ( ).
  ---------------------------------------------------------------------------------------------
   Step     Total Energy     Delta E     MAX Force     RMS Force      MAX Disp      RMS Disp   
  ---------------------------------------------------------------------------------------------
    Convergence Criteria             o    2.00e-06 *    1.00e-06 *    6.00e-06 *    4.00e-06 *
  ---------------------------------------------------------------------------------------------
      2   -1394.72227021   -1.36e-03 o    1.76e-02      8.49e-03      2.62e-02      1.44e-02    ~
  ---------------------------------------------------------------------------------------------

	Writing optimization data to binary file.
	Structure for next step:
	Cartesian Geometry (in Angstrom)
	   CR    -0.0010310003   0.0686565020  -0.0151114806
	    O     1.0133548647   0.8168498813  -0.9218994836
	    O    -1.0421419300   1.0989701868   0.5002316042
	    F    -0.7794815589  -1.1492342538  -0.8986496076
	    F     0.8064111534  -0.6430018616   1.2931171254
			--------------------------
			 OPTKING Finished Execution 
			--------------------------

    Structure for next step:
    Molecular point group: c1
    Full point group: C1

    Geometry (in Angstrom), charge = 0, multiplicity = 1:

    CR          -0.001011496598     0.067345821175    -0.014822892374
    O            1.013374372483     0.815539203382    -0.921610898984
    O           -1.042122430292     1.097659509998     0.500520194417
    F           -0.779462058211    -1.150544939458    -0.898361022825
    F            0.806430660313    -0.644312545301     1.293405718742

gradient() will perform analytic gradient computation.

*** tstart() called on thinkpad
*** at Sat Jul 10 15:21:17 2021

   => Loading Basis Set <=

    Name: DEF2-TZVP
    Role: ORBITAL
    Keyword: BASIS
    atoms 1   entry CR         line   872 file /usr/share/psi4/basis/def2-tzvp.gbs 
    atoms 2-3 entry O          line   189 file /usr/share/psi4/basis/def2-tzvp.gbs 
    atoms 4-5 entry F          line   222 file /usr/share/psi4/basis/def2-tzvp.gbs 


         ---------------------------------------------------------
                                   SCF
               by Justin Turney, Rob Parrish, Andy Simmonett
                          and Daniel G. A. Smith
                              RKS Reference
                        4 Threads,   7629 MiB Core
         ---------------------------------------------------------

  ==> Geometry <==

    Molecular point group: c1
    Full point group: C1

    Geometry (in Angstrom), charge = 0, multiplicity = 1:

       Center              X                  Y                   Z               Mass       
    ------------   -----------------  -----------------  -----------------  -----------------
         CR          -0.001011496598     0.067345821175    -0.014822892374    51.940506230000
         O            1.013374372483     0.815539203382    -0.921610898984    15.994914619570
         O           -1.042122430292     1.097659509998     0.500520194417    15.994914619570
         F           -0.779462058211    -1.150544939458    -0.898361022825    18.998403162730
         F            0.806430660313    -0.644312545301     1.293405718742    18.998403162730

  Running in c1 symmetry.

  Rotational constants: A =      0.14835  B =      0.13755  C =      0.12488 [cm^-1]
  Rotational constants: A =   4447.30781  B =   4123.56058  C =   3743.70688 [MHz]
  Nuclear repulsion =  352.124024366240292

  Charge       = 0
  Multiplicity = 1
  Electrons    = 58
  Nalpha       = 29
  Nbeta        = 29

  ==> Algorithm <==

  SCF Algorithm Type is DF.
  DIIS enabled.
  MOM disabled.
  Fractional occupation disabled.
  Guess Type is READ.
  Energy threshold   = 1.00e-08
  Density threshold  = 1.00e-08
  Integral threshold = 0.00e+00

  ==> Primary Basis <==

  Basis Set: DEF2-TZVP
    Blend: DEF2-TZVP
    Number of shells: 59
    Number of basis function: 169
    Number of Cartesian functions: 196
    Spherical Harmonics?: true
    Max angular momentum: 3

  ==> DFT Potential <==

   => Composite Functional: MY R2SCAN <= 

    Re-regularized SCAN exchange by Furness et al
    Re-regularized SCAN correlation by Furness et al
    J. W. Furness, A. D. Kaplan, J. Ning, J. P. Perdew, and J. Sun, J. Phys. Chem. Lett. 11, 8208 (2020)
    J. W. Furness, A. D. Kaplan, J. Ning, J. P. Perdew, and J. Sun, J. Phys. Chem. Lett. 11, 9248 (2020)

    Deriv               =              1
    GGA                 =           TRUE
    Meta                =           TRUE

    Exchange Hybrid     =          FALSE
    MP2 Hybrid          =          FALSE

   => Exchange Functionals <=

    1.0000   XC_mgga_x_r2scan

   => Correlation Functionals <=

    1.0000   XC_mgga_c_r2scan

   => Molecular Quadrature <=

    Radial Scheme          =       TREUTLER
    Pruning Scheme         =           FLAT
    Nuclear Scheme         =       TREUTLER

    BS radius alpha        =              1
    Pruning alpha          =              1
    Radial Points          =             75
    Spherical Points       =            302
    Total Points           =         113250
    Total Blocks           =            923
    Max Points             =            255
    Max Functions          =            163

   => Loading Basis Set <=

    Name: (DEF2-TZVP AUX)
    Role: JKFIT
    Keyword: DF_BASIS_SCF
    atoms 1   entry CR         line  1731 file /usr/share/psi4/basis/def2-tzvp-jkfit.gbs 
    atoms 2-3 entry O          line   323 file /usr/share/psi4/basis/def2-tzvp-jkfit.gbs 
    atoms 4-5 entry F          line   383 file /usr/share/psi4/basis/def2-tzvp-jkfit.gbs 

   => Loading Basis Set <=

    Name: DEF2-TZVP
    Role: ORBITAL
    Keyword: BASIS
    atoms 1   entry CR         line   872 file /usr/share/psi4/basis/def2-tzvp.gbs 
    atoms 2-3 entry O          line   189 file /usr/share/psi4/basis/def2-tzvp.gbs 
    atoms 4-5 entry F          line   222 file /usr/share/psi4/basis/def2-tzvp.gbs 

  Reading orbitals from file 180, no projection.

  ==> Pre-Iterations <==

   -------------------------------------------------------
    Irrep   Nso     Nmo     Nalpha   Nbeta   Ndocc  Nsocc
   -------------------------------------------------------
     A        169     169       0       0       0       0
   -------------------------------------------------------
    Total     169     169      29      29      29       0
   -------------------------------------------------------

  ==> Integral Setup <==

  DFHelper Memory: AOs need 0.129 GiB; user supplied 4.657 GiB. Using in-core AOs.

  ==> MemDFJK: Density-Fitted J/K Matrices <==

    J tasked:                   Yes
    K tasked:                    No
    wK tasked:                   No
    OpenMP threads:               4
    Memory [MiB]:              4768
    Algorithm:                 Core
    Schwarz Cutoff:           1E-12
    Mask sparsity (%):       3.1441
    Fitting Condition:        1E-10

   => Auxiliary Basis Set <=

  Basis Set: (DEF2-TZVP AUX)
    Blend: DEF2-TZVP-JKFIT
    Number of shells: 158
    Number of basis function: 572
    Number of Cartesian functions: 749
    Spherical Harmonics?: true
    Max angular momentum: 6

  Cached 100.0% of DFT collocation blocks in 0.931 [GiB].

  Minimum eigenvalue in the overlap matrix is 1.9448154082E-03.
  Using Symmetric Orthogonalization.

  SCF Guess: Orbitals guess was supplied from a previous computation.

  ==> Iterations <==

                           Total Energy        Delta E     RMS |[F,P]|

   @DF-RKS iter   0: -1394.71449097878894   -1.39471e+03   3.86182e-04 
   @DF-RKS iter   1: -1394.72258796873302   -8.09699e-03   2.05103e-04 DIIS
   @DF-RKS iter   2: -1394.69976455600795    2.28234e-02   1.71564e-03 DIIS
   @DF-RKS iter   3: -1394.72287274164546   -2.31082e-02   7.98044e-05 DIIS
   @DF-RKS iter   4: -1394.72293866057294   -6.59189e-05   2.62491e-05 DIIS
   @DF-RKS iter   5: -1394.72294459597992   -5.93541e-06   4.13843e-06 DIIS
   @DF-RKS iter   6: -1394.72294468118116   -8.52012e-08   2.31193e-06 DIIS
   @DF-RKS iter   7: -1394.72294471686018   -3.56790e-08   7.21938e-07 DIIS
   @DF-RKS iter   8: -1394.72294471920213   -2.34195e-09   5.17477e-07 DIIS
   @DF-RKS iter   9: -1394.72294472165504   -2.45291e-09   8.16797e-08 DIIS
   @DF-RKS iter  10: -1394.72294472170620   -5.11591e-11   1.14642e-08 DIIS
   @DF-RKS iter  11: -1394.72294472170802   -1.81899e-12   7.79535e-09 DIIS
  Energy and wave function converged.


  ==> Post-Iterations <==

    Orbital Energies [Eh]
    ---------------------

    Doubly Occupied:                                                      

       1A   -215.483306     2A    -24.792475     3A    -24.534075  
       4A    -24.534072     5A    -21.064469     6A    -21.063894  
       7A    -21.060881     8A    -19.050682     9A    -19.050680  
      10A     -3.027197    11A     -1.978601    12A     -1.978314  
      13A     -1.972488    14A     -1.168084    15A     -1.163350  
      16A     -0.957275    17A     -0.946960    18A     -0.498209  
      19A     -0.490072    20A     -0.474247    21A     -0.472785  
      22A     -0.471448    23A     -0.436217    24A     -0.426979  
      25A     -0.413293    26A     -0.392913    27A     -0.380401  
      28A     -0.379038    29A     -0.337459  

    Virtual:                                                              

      30A     -0.219677    31A     -0.204741    32A     -0.173309  
      33A     -0.141032    34A     -0.113580    35A      0.006694  
      36A      0.122531    37A      0.122619    38A      0.125919  
      39A      0.131069    40A      0.131985    41A      0.180729  
      42A      0.197382    43A      0.199106    44A      0.205787  
      45A      0.430093    46A      0.436031    47A      0.440020  
      48A      0.509758    49A      0.511882    50A      0.535713  
      51A      0.545936    52A      0.554413    53A      0.564783  
      54A      0.575979    55A      0.588576    56A      0.600772  
      57A      0.628894    58A      0.678922    59A      0.711322  
      60A      0.729903    61A      0.746953    62A      0.822115  
      63A      0.899283    64A      1.038606    65A      1.047447  
      66A      1.195439    67A      1.231270    68A      1.270620  
      69A      1.305356    70A      1.373246    71A      1.396004  
      72A      1.514329    73A      1.529673    74A      1.537145  
      75A      1.539834    76A      1.601599    77A      1.712400  
      78A      1.753194    79A      1.794567    80A      1.874902  
      81A      1.877243    82A      1.974072    83A      1.983360  
      84A      2.031389    85A      2.043302    86A      2.153637  
      87A      2.153759    88A      2.175526    89A      2.336936  
      90A      2.378509    91A      2.395348    92A      2.417226  
      93A      2.524641    94A      2.552825    95A      2.575677  
      96A      2.669178    97A      2.677275    98A      2.723405  
      99A      2.833064   100A      2.851680   101A      2.920386  
     102A      2.984850   103A      3.050172   104A      3.057474  
     105A      3.080161   106A      3.128626   107A      3.146895  
     108A      3.268303   109A      3.282839   110A      3.290736  
     111A      3.308605   112A      3.805854   113A      3.824541  
     114A      4.062494   115A      4.070127   116A      4.288661  
     117A      4.346551   118A      5.117527   119A      5.126016  
     120A      5.138304   121A      5.138455   122A      5.140863  
     123A      5.145164   124A      5.162430   125A      5.181801  
     126A      5.408651   127A      5.422087   128A      5.447327  
     129A      5.466932   130A      5.985453   131A      6.028268  
     132A      6.218425   133A      6.247476   134A      6.300290  
     135A      6.327011   136A      6.451967   137A      6.516206  
     138A      6.548074   139A      6.653009   140A      6.901636  
     141A      6.903286   142A      6.904587   143A      6.911946  
     144A      6.917880   145A      6.917946   146A      6.917961  
     147A      6.918893   148A      6.925612   149A      6.936264  
     150A      6.964990   151A      6.967497   152A      7.075096  
     153A      7.098671   154A      7.139922   155A      7.233064  
     156A      8.271530   157A      8.294382   158A      8.335149  
     159A      8.347355   160A      8.363507   161A      8.428984  
     162A      8.525061   163A      8.560652   164A      8.848087  
     165A      8.913663   166A     43.559962   167A     43.564281  
     168A     56.967820   169A     57.040385  

    Final Occupation by Irrep:
              A 
    DOCC [    29 ]

  @DF-RKS Final Energy: -1394.72294472170802

   => Energetics <=

    Nuclear Repulsion Energy =            352.1240243662402918
    One-Electron Energy =               -2620.8909692639317655
    Two-Electron Energy =                 960.4448182146012414
    DFT Exchange-Correlation Energy =     -86.4008180386178708
    Empirical Dispersion Energy =           0.0000000000000000
    VV10 Nonlocal Energy =                  0.0000000000000000
    Total Energy =                      -1394.7229447217080178

Computation Completed


Properties will be evaluated at   0.000000,   0.000000,   0.000000 [a0]

Properties computed using the SCF density matrix

  Nuclear Dipole Moment: [e a0]
     X:    -0.0218      Y:     1.4516      Z:    -0.3195

  Electronic Dipole Moment: [e a0]
     X:     0.0226      Y:    -1.5048      Z:     0.3312

  Dipole Moment: [e a0]
     X:     0.0008      Y:    -0.0531      Z:     0.0117     Total:     0.0544

  Dipole Moment: [D]
     X:     0.0020      Y:    -0.1350      Z:     0.0297     Total:     0.1383


*** tstop() called on thinkpad at Sat Jul 10 15:21:26 2021
Module time:
	user time   =      30.94 seconds =       0.52 minutes
	system time =       0.12 seconds =       0.00 minutes
	total time  =          9 seconds =       0.15 minutes
Total time:
	user time   =     123.11 seconds =       2.05 minutes
	system time =       0.94 seconds =       0.02 minutes
	total time  =         38 seconds =       0.63 minutes

*** tstart() called on thinkpad
*** at Sat Jul 10 15:21:26 2021


         ------------------------------------------------------------
                                   SCF GRAD                          
                          Rob Parrish, Justin Turney,                
                       Andy Simmonett, and Alex Sokolov              
         ------------------------------------------------------------

  ==> Geometry <==

    Molecular point group: c1
    Full point group: C1

    Geometry (in Angstrom), charge = 0, multiplicity = 1:

       Center              X                  Y                   Z               Mass       
    ------------   -----------------  -----------------  -----------------  -----------------
         CR          -0.001011496598     0.067345821175    -0.014822892374    51.940506230000
         O            1.013374372483     0.815539203382    -0.921610898984    15.994914619570
         O           -1.042122430292     1.097659509998     0.500520194417    15.994914619570
         F           -0.779462058211    -1.150544939458    -0.898361022825    18.998403162730
         F            0.806430660313    -0.644312545301     1.293405718742    18.998403162730

  Nuclear repulsion =  352.124024366240292

  ==> Basis Set <==

  Basis Set: DEF2-TZVP
    Blend: DEF2-TZVP
    Number of shells: 59
    Number of basis function: 169
    Number of Cartesian functions: 196
    Spherical Harmonics?: true
    Max angular momentum: 3

  ==> DFJKGrad: Density-Fitted SCF Gradients <==

    Gradient:                    1
    J tasked:                  Yes
    K tasked:                   No
    wK tasked:                  No
    OpenMP threads:              4
    Integrals threads:           4
    Memory [MiB]:             5722
    Schwarz Cutoff:          0E+00
    Fitting Condition:       1E-10

   => Auxiliary Basis Set <=

  Basis Set: (DEF2-TZVP AUX)
    Blend: DEF2-TZVP-JKFIT
    Number of shells: 158
    Number of basis function: 572
    Number of Cartesian functions: 749
    Spherical Harmonics?: true
    Max angular momentum: 6

  ==> DFT Potential <==

   => Composite Functional: MY R2SCAN <= 

    Re-regularized SCAN exchange by Furness et al
    Re-regularized SCAN correlation by Furness et al
    J. W. Furness, A. D. Kaplan, J. Ning, J. P. Perdew, and J. Sun, J. Phys. Chem. Lett. 11, 8208 (2020)
    J. W. Furness, A. D. Kaplan, J. Ning, J. P. Perdew, and J. Sun, J. Phys. Chem. Lett. 11, 9248 (2020)

    Deriv               =              1
    GGA                 =           TRUE
    Meta                =           TRUE

    Exchange Hybrid     =          FALSE
    MP2 Hybrid          =          FALSE

   => Exchange Functionals <=

    1.0000   XC_mgga_x_r2scan

   => Correlation Functionals <=

    1.0000   XC_mgga_c_r2scan

   => Molecular Quadrature <=

    Radial Scheme          =       TREUTLER
    Pruning Scheme         =           FLAT
    Nuclear Scheme         =       TREUTLER

    BS radius alpha        =              1
    Pruning alpha          =              1
    Radial Points          =             75
    Spherical Points       =            302
    Total Points           =         113250
    Total Blocks           =            923
    Max Points             =            255
    Max Functions          =            163


  -Total Gradient:
     Atom            X                  Y                   Z
    ------   -----------------  -----------------  -----------------
       1        0.000141533827    -0.009396142700     0.002067873047
       2       -0.002379959514    -0.000558684666     0.001851082343
       3        0.002406435148    -0.001215637365    -0.001460445174
       4        0.003611610961     0.004550214049     0.004317567659
       5       -0.003713377181     0.002212014197    -0.005805836768


*** tstop() called on thinkpad at Sat Jul 10 15:21:30 2021
Module time:
	user time   =       9.65 seconds =       0.16 minutes
	system time =       0.06 seconds =       0.00 minutes
	total time  =          4 seconds =       0.07 minutes
Total time:
	user time   =     132.77 seconds =       2.21 minutes
	system time =       1.00 seconds =       0.02 minutes
	total time  =         42 seconds =       0.70 minutes

			-----------------------------------------
			 OPTKING 2.0: for geometry optimizations 
			  - R.A. King,  Bethel University        
			-----------------------------------------

	Previous internal coordinate definitions found.
	---Fragment 1 Geometry and Gradient---
	 CR         -0.0019114515        0.1272651577       -0.0280112070
	 O           1.9150000265        1.5411457390       -1.7415921933
	 O          -1.9693259824        2.0742758529        0.9458460877
	 F          -1.4729698152       -2.1742148306       -1.6976562949
	 F           1.5239330872       -1.2175742498        2.4441825775
	             0.0001415338       -0.0093961427        0.0020678730
	            -0.0023799595       -0.0005586847        0.0018510823
	             0.0024064351       -0.0012156374       -0.0014604452
	             0.0036116110        0.0045502140        0.0043175677
	            -0.0037133772        0.0022120142       -0.0058058368

	---Fragment 1 Intrafragment Coordinates---
	 - Coordinate -           - BOHR/RAD -       - ANG/DEG -
	 R(1,2)           =         2.934275	       1.552751
	 R(1,3)           =         2.934275	       1.552751
	 R(1,4)           =         3.201334	       1.694073
	 R(1,5)           =         3.201334	       1.694073
	 B(2,1,3)         =         1.888215	     108.186751
	 B(2,1,4)         =         1.919866	     110.000238
	 B(2,1,5)         =         1.919867	     110.000260
	 B(3,1,4)         =         1.919865	     110.000147
	 B(3,1,5)         =         1.919865	     110.000153
	 B(4,1,5)         =         1.896283	     108.648998

	Current energy   :     -1394.7229447217

	Energy change for the previous step:
		Projected    :        -0.0010392074
		Actual       :        -0.0006745112

	Performing BFGS update.
	Previous computed or guess Hessian on step 1.
	Steps to be used in Hessian update: 2 1
	Taking RFO optimization step.
	Going to follow RFO solution 1.
	Using RFO vector 1.
	Norm of target step-size    0.02684
	Projected energy change by RFO approximation:        -0.0003037262

	Back-transformation to cartesian coordinates...
	Successfully converged to displaced geometry.

	--- Internal Coordinate Step in ANG or DEG, aJ/ANG or AJ/DEG ---
	 ---------------------------------------------------------------------------
	   Coordinate                Previous        Force       Change         New 
	   ----------                --------       ------       ------       ------
	    1 R(1,2)          =      1.552751     0.019571     0.001494     1.554245
	    2 R(1,3)          =      1.552751     0.019570     0.001493     1.554245
	    3 R(1,4)          =      1.694073     0.063513     0.008702     1.702775
	    4 R(1,5)          =      1.694073     0.063514     0.008702     1.702775
	    5 B(2,1,3)        =    108.186751     0.000312     0.593948   108.780699
	    6 B(2,1,4)        =    110.000238    -0.000070    -0.043671   109.956567
	    7 B(2,1,5)        =    110.000260    -0.000070    -0.043675   109.956585
	    8 B(3,1,4)        =    110.000147    -0.000070    -0.043623   109.956523
	    9 B(3,1,5)        =    110.000153    -0.000070    -0.043623   109.956531
	   10 B(4,1,5)        =    108.648998    -0.000032    -0.421385   108.227613
	 ---------------------------------------------------------------------------
	Successfully symmetrized geometry.

  ==> Convergence Check <==

  Measures of convergence in internal coordinates in au.
  Criteria marked as inactive (o), active & met (*), and active & unmet ( ).
  ---------------------------------------------------------------------------------------------
   Step     Total Energy     Delta E     MAX Force     RMS Force      MAX Disp      RMS Disp   
  ---------------------------------------------------------------------------------------------
    Convergence Criteria             o    2.00e-06 *    1.00e-06 *    6.00e-06 *    4.00e-06 *
  ---------------------------------------------------------------------------------------------
      3   -1394.72294472   -6.75e-04 o    7.71e-03      3.88e-03      1.64e-02      8.49e-03    ~
  ---------------------------------------------------------------------------------------------

	Writing optimization data to binary file.
	Structure for next step:
	Cartesian Geometry (in Angstrom)
	   CR    -0.0011046173   0.0735237463  -0.0161824471
	    O     1.0182000009   0.8155246698  -0.9250991854
	    O    -1.0469677312   1.0989728777   0.5037227327
	    F    -0.7813692791  -1.1549101185  -0.9002521389
	    F     0.8084506744  -0.6474241263   1.2969421379
			--------------------------
			 OPTKING Finished Execution 
			--------------------------

    Structure for next step:
    Molecular point group: c1
    Full point group: C1

    Geometry (in Angstrom), charge = 0, multiplicity = 1:

    CR          -0.001079942702     0.071886598412    -0.015822163551
    O            1.018224679561     0.813887524767    -0.924738905438
    O           -1.046943060710     1.097335733871     0.504083018217
    F           -0.781344607553    -1.156547271227    -0.899891858905
    F            0.808475352212    -0.649061277011     1.297302426528

gradient() will perform analytic gradient computation.

*** tstart() called on thinkpad
*** at Sat Jul 10 15:21:30 2021

   => Loading Basis Set <=

    Name: DEF2-TZVP
    Role: ORBITAL
    Keyword: BASIS
    atoms 1   entry CR         line   872 file /usr/share/psi4/basis/def2-tzvp.gbs 
    atoms 2-3 entry O          line   189 file /usr/share/psi4/basis/def2-tzvp.gbs 
    atoms 4-5 entry F          line   222 file /usr/share/psi4/basis/def2-tzvp.gbs 


         ---------------------------------------------------------
                                   SCF
               by Justin Turney, Rob Parrish, Andy Simmonett
                          and Daniel G. A. Smith
                              RKS Reference
                        4 Threads,   7629 MiB Core
         ---------------------------------------------------------

  ==> Geometry <==

    Molecular point group: c1
    Full point group: C1

    Geometry (in Angstrom), charge = 0, multiplicity = 1:

       Center              X                  Y                   Z               Mass       
    ------------   -----------------  -----------------  -----------------  -----------------
         CR          -0.001079942702     0.071886598412    -0.015822163551    51.940506230000
         O            1.018224679561     0.813887524767    -0.924738905438    15.994914619570
         O           -1.046943060710     1.097335733871     0.504083018217    15.994914619570
         F           -0.781344607553    -1.156547271227    -0.899891858905    18.998403162730
         F            0.808475352212    -0.649061277011     1.297302426528    18.998403162730

  Running in c1 symmetry.

  Rotational constants: A =      0.14727  B =      0.13662  C =      0.12422 [cm^-1]
  Rotational constants: A =   4414.90865  B =   4095.68685  C =   3724.02396 [MHz]
  Nuclear repulsion =  351.040437571366112

  Charge       = 0
  Multiplicity = 1
  Electrons    = 58
  Nalpha       = 29
  Nbeta        = 29

  ==> Algorithm <==

  SCF Algorithm Type is DF.
  DIIS enabled.
  MOM disabled.
  Fractional occupation disabled.
  Guess Type is READ.
  Energy threshold   = 1.00e-08
  Density threshold  = 1.00e-08
  Integral threshold = 0.00e+00

  ==> Primary Basis <==

  Basis Set: DEF2-TZVP
    Blend: DEF2-TZVP
    Number of shells: 59
    Number of basis function: 169
    Number of Cartesian functions: 196
    Spherical Harmonics?: true
    Max angular momentum: 3

  ==> DFT Potential <==

   => Composite Functional: MY R2SCAN <= 

    Re-regularized SCAN exchange by Furness et al
    Re-regularized SCAN correlation by Furness et al
    J. W. Furness, A. D. Kaplan, J. Ning, J. P. Perdew, and J. Sun, J. Phys. Chem. Lett. 11, 8208 (2020)
    J. W. Furness, A. D. Kaplan, J. Ning, J. P. Perdew, and J. Sun, J. Phys. Chem. Lett. 11, 9248 (2020)

    Deriv               =              1
    GGA                 =           TRUE
    Meta                =           TRUE

    Exchange Hybrid     =          FALSE
    MP2 Hybrid          =          FALSE

   => Exchange Functionals <=

    1.0000   XC_mgga_x_r2scan

   => Correlation Functionals <=

    1.0000   XC_mgga_c_r2scan

   => Molecular Quadrature <=

    Radial Scheme          =       TREUTLER
    Pruning Scheme         =           FLAT
    Nuclear Scheme         =       TREUTLER

    BS radius alpha        =              1
    Pruning alpha          =              1
    Radial Points          =             75
    Spherical Points       =            302
    Total Points           =         113250
    Total Blocks           =            925
    Max Points             =            256
    Max Functions          =            163

   => Loading Basis Set <=

    Name: (DEF2-TZVP AUX)
    Role: JKFIT
    Keyword: DF_BASIS_SCF
    atoms 1   entry CR         line  1731 file /usr/share/psi4/basis/def2-tzvp-jkfit.gbs 
    atoms 2-3 entry O          line   323 file /usr/share/psi4/basis/def2-tzvp-jkfit.gbs 
    atoms 4-5 entry F          line   383 file /usr/share/psi4/basis/def2-tzvp-jkfit.gbs 

   => Loading Basis Set <=

    Name: DEF2-TZVP
    Role: ORBITAL
    Keyword: BASIS
    atoms 1   entry CR         line   872 file /usr/share/psi4/basis/def2-tzvp.gbs 
    atoms 2-3 entry O          line   189 file /usr/share/psi4/basis/def2-tzvp.gbs 
    atoms 4-5 entry F          line   222 file /usr/share/psi4/basis/def2-tzvp.gbs 

  Reading orbitals from file 180, no projection.

  ==> Pre-Iterations <==

   -------------------------------------------------------
    Irrep   Nso     Nmo     Nalpha   Nbeta   Ndocc  Nsocc
   -------------------------------------------------------
     A        169     169       0       0       0       0
   -------------------------------------------------------
    Total     169     169      29      29      29       0
   -------------------------------------------------------

  ==> Integral Setup <==

  DFHelper Memory: AOs need 0.129 GiB; user supplied 4.658 GiB. Using in-core AOs.

  ==> MemDFJK: Density-Fitted J/K Matrices <==

    J tasked:                   Yes
    K tasked:                    No
    wK tasked:                   No
    OpenMP threads:               4
    Memory [MiB]:              4769
    Algorithm:                 Core
    Schwarz Cutoff:           1E-12
    Mask sparsity (%):       3.2492
    Fitting Condition:        1E-10

   => Auxiliary Basis Set <=

  Basis Set: (DEF2-TZVP AUX)
    Blend: DEF2-TZVP-JKFIT
    Number of shells: 158
    Number of basis function: 572
    Number of Cartesian functions: 749
    Spherical Harmonics?: true
    Max angular momentum: 6

  Cached 100.0% of DFT collocation blocks in 0.930 [GiB].

  Minimum eigenvalue in the overlap matrix is 1.9624526770E-03.
  Using Symmetric Orthogonalization.

  SCF Guess: Orbitals guess was supplied from a previous computation.

  ==> Iterations <==

                           Total Energy        Delta E     RMS |[F,P]|

   @DF-RKS iter   0: -1394.71811618929928   -1.39472e+03   2.47416e-04 
   @DF-RKS iter   1: -1394.72298149541371   -4.86531e-03   1.14864e-04 DIIS
   @DF-RKS iter   2: -1394.71545002952666    7.53147e-03   9.95809e-04 DIIS
   @DF-RKS iter   3: -1394.72307847937373   -7.62845e-03   3.39555e-05 DIIS
   @DF-RKS iter   4: -1394.72308661647003   -8.13710e-06   2.15638e-05 DIIS
   @DF-RKS iter   5: -1394.72309111023583   -4.49377e-06   1.38208e-06 DIIS
   @DF-RKS iter   6: -1394.72309112385983   -1.36240e-08   6.78743e-07 DIIS
   @DF-RKS iter   7: -1394.72309112711287   -3.25304e-09   2.11655e-07 DIIS
   @DF-RKS iter   8: -1394.72309112712310   -1.02318e-11   1.97734e-07 DIIS
   @DF-RKS iter   9: -1394.72309112754260   -4.19504e-10   1.13240e-08 DIIS
   @DF-RKS iter  10: -1394.72309112754283   -2.27374e-13   1.51440e-09 DIIS
  Energy and wave function converged.


  ==> Post-Iterations <==

    Orbital Energies [Eh]
    ---------------------

    Doubly Occupied:                                                      

       1A   -215.485283     2A    -24.794129     3A    -24.533205  
       4A    -24.533202     5A    -21.066161     6A    -21.065588  
       7A    -21.062550     8A    -19.052264     9A    -19.052263  
      10A     -3.028207    11A     -1.979374    12A     -1.979208  
      13A     -1.973043    14A     -1.166350    15A     -1.161830  
      16A     -0.958570    17A     -0.947985    18A     -0.496435  
      19A     -0.488564    20A     -0.472694    21A     -0.472325  
      22A     -0.470141    23A     -0.436668    24A     -0.425650  
      25A     -0.412908    26A     -0.393658    27A     -0.381049  
      28A     -0.379616    29A     -0.338918  

    Virtual:                                                              

      30A     -0.222262    31A     -0.206249    32A     -0.176388  
      33A     -0.142775    34A     -0.116023    35A      0.006593  
      36A      0.122453    37A      0.122773    38A      0.125439  
      39A      0.130979    40A      0.131972    41A      0.180685  
      42A      0.196868    43A      0.198224    44A      0.204719  
      45A      0.429401    46A      0.435681    47A      0.439762  
      48A      0.509217    49A      0.511836    50A      0.534371  
      51A      0.544057    52A      0.553867    53A      0.564264  
      54A      0.575342    55A      0.589356    56A      0.600651  
      57A      0.627113    58A      0.679334    59A      0.710896  
      60A      0.729868    61A      0.747138    62A      0.821978  
      63A      0.899211    64A      1.037315    65A      1.049571  
      66A      1.190996    67A      1.229192    68A      1.269543  
      69A      1.300883    70A      1.370724    71A      1.396073  
      72A      1.513356    73A      1.529446    74A      1.534348  
      75A      1.534821    76A      1.600958    77A      1.707753  
      78A      1.752972    79A      1.797814    80A      1.874687  
      81A      1.875621    82A      1.973990    83A      1.985276  
      84A      2.030516    85A      2.044037    86A      2.152067  
      87A      2.152217    88A      2.168244    89A      2.337182  
      90A      2.376633    91A      2.391287    92A      2.411817  
      93A      2.523832    94A      2.550258    95A      2.570047  
      96A      2.663462    97A      2.674396    98A      2.721167  
      99A      2.831750   100A      2.845435   101A      2.918276  
     102A      2.979484   103A      3.043850   104A      3.057963  
     105A      3.078465   106A      3.126494   107A      3.145952  
     108A      3.263708   109A      3.279927   110A      3.289184  
     111A      3.307289   112A      3.797728   113A      3.814914  
     114A      4.056218   115A      4.066840   116A      4.268520  
     117A      4.328341   118A      5.116421   119A      5.124952  
     120A      5.137238   121A      5.137410   122A      5.139711  
     123A      5.143866   124A      5.160556   125A      5.180125  
     126A      5.409644   127A      5.417071   128A      5.439392  
     129A      5.463584   130A      5.976664   131A      6.025399  
     132A      6.216087   133A      6.245591   134A      6.297539  
     135A      6.327094   136A      6.447211   137A      6.512329  
     138A      6.545576   139A      6.651366   140A      6.903549  
     141A      6.904910   142A      6.906618   143A      6.913818  
     144A      6.919583   145A      6.919650   146A      6.919667  
     147A      6.920563   148A      6.924054   149A      6.935292  
     150A      6.963005   151A      6.966275   152A      7.064205  
     153A      7.093161   154A      7.137380   155A      7.226946  
     156A      8.272515   157A      8.295151   158A      8.335599  
     159A      8.346524   160A      8.360128   161A      8.427082  
     162A      8.520637   163A      8.556574   164A      8.836085  
     165A      8.901072   166A     43.557439   167A     43.558834  
     168A     56.962799   169A     57.033102  

    Final Occupation by Irrep:
              A 
    DOCC [    29 ]

  @DF-RKS Final Energy: -1394.72309112754283

   => Energetics <=

    Nuclear Repulsion Energy =            351.0404375713661125
    One-Electron Energy =               -2618.7142022987923156
    Two-Electron Energy =                 959.3413959809927292
    DFT Exchange-Correlation Energy =     -86.3907223811092848
    Empirical Dispersion Energy =           0.0000000000000000
    VV10 Nonlocal Energy =                  0.0000000000000000
    Total Energy =                      -1394.7230911275428298

Computation Completed


Properties will be evaluated at   0.000000,   0.000000,   0.000000 [a0]

Properties computed using the SCF density matrix

  Nuclear Dipole Moment: [e a0]
     X:    -0.0217      Y:     1.4449      Z:    -0.3180

  Electronic Dipole Moment: [e a0]
     X:     0.0221      Y:    -1.4691      Z:     0.3234

  Dipole Moment: [e a0]
     X:     0.0004      Y:    -0.0243      Z:     0.0053     Total:     0.0249

  Dipole Moment: [D]
     X:     0.0009      Y:    -0.0617      Z:     0.0136     Total:     0.0632


*** tstop() called on thinkpad at Sat Jul 10 15:21:38 2021
Module time:
	user time   =      28.82 seconds =       0.48 minutes
	system time =       0.10 seconds =       0.00 minutes
[...]
    atoms 4-5 entry F          line   383 file /usr/share/psi4/basis/def2-tzvp-jkfit.gbs 

   => Loading Basis Set <=

    Name: DEF2-TZVP
    Role: ORBITAL
    Keyword: BASIS
    atoms 1   entry CR         line   872 file /usr/share/psi4/basis/def2-tzvp.gbs 
    atoms 2-3 entry O          line   189 file /usr/share/psi4/basis/def2-tzvp.gbs 
    atoms 4-5 entry F          line   222 file /usr/share/psi4/basis/def2-tzvp.gbs 

  Reading orbitals from file 180, no projection.

  ==> Pre-Iterations <==

   -------------------------------------------------------
    Irrep   Nso     Nmo     Nalpha   Nbeta   Ndocc  Nsocc
   -------------------------------------------------------
     A        169     169       0       0       0       0
   -------------------------------------------------------
    Total     169     169      29      29      29       0
   -------------------------------------------------------

  ==> Integral Setup <==

  DFHelper Memory: AOs need 0.129 GiB; user supplied 4.658 GiB. Using in-core AOs.

  ==> MemDFJK: Density-Fitted J/K Matrices <==

    J tasked:                   Yes
    K tasked:                    No
    wK tasked:                   No
    OpenMP threads:               4
    Memory [MiB]:              4769
    Algorithm:                 Core
    Schwarz Cutoff:           1E-12
    Mask sparsity (%):       3.2772
    Fitting Condition:        1E-10

   => Auxiliary Basis Set <=

  Basis Set: (DEF2-TZVP AUX)
    Blend: DEF2-TZVP-JKFIT
    Number of shells: 158
    Number of basis function: 572
    Number of Cartesian functions: 749
    Spherical Harmonics?: true
    Max angular momentum: 6

  Cached 100.0% of DFT collocation blocks in 0.930 [GiB].

  Minimum eigenvalue in the overlap matrix is 1.9674608007E-03.
  Using Symmetric Orthogonalization.

  SCF Guess: Orbitals guess was supplied from a previous computation.

  ==> Iterations <==

                           Total Energy        Delta E     RMS |[F,P]|

   @DF-RKS iter   0: -1394.72312777254524   -1.39472e+03   1.10160e-07 
   @DF-RKS iter   1: -1394.72312792660591   -1.54061e-07   2.66529e-08 DIIS
   @DF-RKS iter   2: -1394.72312792626485    3.41061e-10   2.08903e-07 DIIS
   @DF-RKS iter   3: -1394.72312792660955   -3.44698e-10   2.62634e-08 DIIS
   @DF-RKS iter   4: -1394.72312792661342   -3.86535e-12   9.11165e-09 DIIS
  Energy and wave function converged.


  ==> Post-Iterations <==

    Orbital Energies [Eh]
    ---------------------

    Doubly Occupied:                                                      

       1A   -215.485745     2A    -24.794488     3A    -24.532817  
       4A    -24.532814     5A    -21.066515     6A    -21.065957  
       7A    -21.062930     8A    -19.052722     9A    -19.052721  
      10A     -3.028426    11A     -1.979690    12A     -1.979295  
      13A     -1.973119    14A     -1.165770    15A     -1.161219  
      16A     -0.958957    17A     -0.948314    18A     -0.495653  
      19A     -0.488367    20A     -0.471993    21A     -0.471868  
      22A     -0.469970    23A     -0.436782    24A     -0.425510  
      25A     -0.412849    26A     -0.393902    27A     -0.381000  
      28A     -0.379789    29A     -0.339319  

    Virtual:                                                              

      30A     -0.222615    31A     -0.206517    32A     -0.177538  
      33A     -0.142905    34A     -0.116622    35A      0.006429  
      36A      0.122502    37A      0.122585    38A      0.125435  
      39A      0.131043    40A      0.131786    41A      0.180070  
      42A      0.196812    43A      0.198702    44A      0.204350  
      45A      0.429498    46A      0.435948    47A      0.439320  
      48A      0.508750    49A      0.511760    50A      0.534485  
      51A      0.543165    52A      0.553783    53A      0.564145  
      54A      0.574971    55A      0.589571    56A      0.601238  
      57A      0.627282    58A      0.677752    59A      0.710943  
      60A      0.730474    61A      0.746935    62A      0.822157  
      63A      0.898907    64A      1.037653    65A      1.049150  
      66A      1.189667    67A      1.228665    68A      1.269277  
      69A      1.299907    70A      1.370254    71A      1.396109  
      72A      1.513735    73A      1.529797    74A      1.533759  
      75A      1.534868    76A      1.599408    77A      1.707902  
      78A      1.751316    79A      1.800191    80A      1.875293  
      81A      1.876486    82A      1.974669    83A      1.985535  
      84A      2.030184    85A      2.043173    86A      2.149111  
      87A      2.151665    88A      2.168222    89A      2.336471  
      90A      2.375953    91A      2.391126    92A      2.409756  
      93A      2.523443    94A      2.549431    95A      2.565010  
      96A      2.662916    97A      2.675336    98A      2.719170  
      99A      2.832138   100A      2.845501   101A      2.918334  
     102A      2.978327   103A      3.042726   104A      3.058511  
     105A      3.077355   106A      3.126732   107A      3.145840  
     108A      3.263558   109A      3.279066   110A      3.288787  
     111A      3.306591   112A      3.794201   113A      3.811449  
     114A      4.055492   115A      4.066728   116A      4.264578  
     117A      4.320012   118A      5.116062   119A      5.124621  
     120A      5.136872   121A      5.137041   122A      5.139344  
     123A      5.143560   124A      5.160437   125A      5.179672  
     126A      5.410156   127A      5.416296   128A      5.437981  
     129A      5.463427   130A      5.975916   131A      6.026186  
     132A      6.215631   133A      6.245083   134A      6.298093  
     135A      6.326327   136A      6.446307   137A      6.512443  
     138A      6.545567   139A      6.651233   140A      6.904295  
     141A      6.905436   142A      6.907347   143A      6.914444  
     144A      6.920208   145A      6.920262   146A      6.920274  
     147A      6.921151   148A      6.924462   149A      6.935144  
     150A      6.962960   151A      6.965144   152A      7.061268  
     153A      7.090611   154A      7.138653   155A      7.225335  
     156A      8.272763   157A      8.295357   158A      8.335397  
     159A      8.346811   160A      8.360051   161A      8.425011  
     162A      8.521528   163A      8.552598   164A      8.833917  
     165A      8.895638   166A     43.556324   167A     43.559138  
     168A     56.960167   169A     57.031131  

    Final Occupation by Irrep:
              A 
    DOCC [    29 ]

  @DF-RKS Final Energy: -1394.72312792661342

   => Energetics <=

    Nuclear Repulsion Energy =            350.7396417344967290
    One-Electron Energy =               -2618.1127438550493025
    Two-Electron Energy =                 959.0383776329568946
    DFT Exchange-Correlation Energy =     -86.3884034390176510
    Empirical Dispersion Energy =           0.0000000000000000
    VV10 Nonlocal Energy =                  0.0000000000000000
    Total Energy =                      -1394.7231279266134152

Computation Completed


Properties will be evaluated at   0.000000,   0.000000,   0.000000 [a0]

Properties computed using the SCF density matrix

  Nuclear Dipole Moment: [e a0]
     X:    -0.0217      Y:     1.4424      Z:    -0.3175

  Electronic Dipole Moment: [e a0]
     X:     0.0220      Y:    -1.4651      Z:     0.3225

  Dipole Moment: [e a0]
     X:     0.0003      Y:    -0.0227      Z:     0.0050     Total:     0.0232

  Dipole Moment: [D]
     X:     0.0009      Y:    -0.0576      Z:     0.0127     Total:     0.0590


*** tstop() called on thinkpad at Sat Jul 10 15:23:02 2021
Module time:
	user time   =      15.54 seconds =       0.26 minutes
	system time =       0.09 seconds =       0.00 minutes
	total time  =          5 seconds =       0.08 minutes
Total time:
	user time   =     419.47 seconds =       6.99 minutes
	system time =       2.33 seconds =       0.04 minutes
	total time  =        134 seconds =       2.23 minutes

*** tstart() called on thinkpad
*** at Sat Jul 10 15:23:02 2021


         ------------------------------------------------------------
                                   SCF GRAD                          
                          Rob Parrish, Justin Turney,                
                       Andy Simmonett, and Alex Sokolov              
         ------------------------------------------------------------

  ==> Geometry <==

    Molecular point group: c1
    Full point group: C1

    Geometry (in Angstrom), charge = 0, multiplicity = 1:

       Center              X                  Y                   Z               Mass       
    ------------   -----------------  -----------------  -----------------  -----------------
         CR          -0.001061085194     0.070615487040    -0.015542303211    51.940506230000
         O            1.018901693696     0.811346364362    -0.924641645047    15.994914619570
         O           -1.047546301341     1.094970891699     0.505065786056    15.994914619570
         F           -0.785591843818    -1.154082168716    -0.906520277489    18.998403162730
         F            0.812608922639    -0.643920831876     1.302256438753    18.998403162730

  Nuclear repulsion =  350.739641734496729

  ==> Basis Set <==

  Basis Set: DEF2-TZVP
    Blend: DEF2-TZVP
    Number of shells: 59
    Number of basis function: 169
    Number of Cartesian functions: 196
    Spherical Harmonics?: true
    Max angular momentum: 3

  ==> DFJKGrad: Density-Fitted SCF Gradients <==

    Gradient:                    1
    J tasked:                  Yes
    K tasked:                   No
    wK tasked:                  No
    OpenMP threads:              4
    Integrals threads:           4
    Memory [MiB]:             5722
    Schwarz Cutoff:          0E+00
    Fitting Condition:       1E-10

   => Auxiliary Basis Set <=

  Basis Set: (DEF2-TZVP AUX)
    Blend: DEF2-TZVP-JKFIT
    Number of shells: 158
    Number of basis function: 572
    Number of Cartesian functions: 749
    Spherical Harmonics?: true
    Max angular momentum: 6

  ==> DFT Potential <==

   => Composite Functional: MY R2SCAN <= 

    Re-regularized SCAN exchange by Furness et al
    Re-regularized SCAN correlation by Furness et al
    J. W. Furness, A. D. Kaplan, J. Ning, J. P. Perdew, and J. Sun, J. Phys. Chem. Lett. 11, 8208 (2020)
    J. W. Furness, A. D. Kaplan, J. Ning, J. P. Perdew, and J. Sun, J. Phys. Chem. Lett. 11, 9248 (2020)

    Deriv               =              1
    GGA                 =           TRUE
    Meta                =           TRUE

    Exchange Hybrid     =          FALSE
    MP2 Hybrid          =          FALSE

   => Exchange Functionals <=

    1.0000   XC_mgga_x_r2scan

   => Correlation Functionals <=

    1.0000   XC_mgga_c_r2scan

   => Molecular Quadrature <=

    Radial Scheme          =       TREUTLER
    Pruning Scheme         =           FLAT
    Nuclear Scheme         =       TREUTLER

    BS radius alpha        =              1
    Pruning alpha          =              1
    Radial Points          =             75
    Spherical Points       =            302
    Total Points           =         113250
    Total Blocks           =            924
    Max Points             =            255
    Max Functions          =            163


  -Total Gradient:
     Atom            X                  Y                   Z
    ------   -----------------  -----------------  -----------------
       1        0.000013209858    -0.000881209117     0.000193955614
       2        0.000013207039    -0.000881062104     0.000193953212
       3        0.000013327074    -0.000881144158     0.000193884684
       4        0.000013277837    -0.000880978861     0.000193988654
       5        0.000013170649    -0.000881006969     0.000193838640


*** tstop() called on thinkpad at Sat Jul 10 15:23:06 2021
Module time:
	user time   =      10.68 seconds =       0.18 minutes
	system time =       0.06 seconds =       0.00 minutes
	total time  =          4 seconds =       0.07 minutes
Total time:
	user time   =     430.16 seconds =       7.17 minutes
	system time =       2.39 seconds =       0.04 minutes
	total time  =        138 seconds =       2.30 minutes

			-----------------------------------------
			 OPTKING 2.0: for geometry optimizations 
			  - R.A. King,  Bethel University        
			-----------------------------------------

	Previous internal coordinate definitions found.
	---Fragment 1 Geometry and Gradient---
	 CR         -0.0020051604        0.1334439307       -0.0293706964
	 O           1.9254451499        1.5332224215       -1.7473194733
	 O          -1.9795756133        2.0691951007        0.9544360110
	 F          -1.4845534312       -2.1808992251       -1.7130750516
	 F           1.5356083109       -1.2168340187        2.4609080144
	             0.0000132099       -0.0008812091        0.0001939556
	             0.0000132070       -0.0008810621        0.0001939532
	             0.0000133271       -0.0008811442        0.0001938847
	             0.0000132778       -0.0008809789        0.0001939887
	             0.0000131706       -0.0008810070        0.0001938386

	---Fragment 1 Intrafragment Coordinates---
	 - Coordinate -           - BOHR/RAD -       - ANG/DEG -
	 R(1,2)           =         2.936970	       1.554178
	 R(1,3)           =         2.936970	       1.554178
	 R(1,4)           =         3.223196	       1.705642
	 R(1,5)           =         3.223196	       1.705642
	 B(2,1,3)         =         1.900435	     108.886878
	 B(2,1,4)         =         1.916141	     109.786807
	 B(2,1,5)         =         1.916141	     109.786805
	 B(3,1,4)         =         1.916141	     109.786809
	 B(3,1,5)         =         1.916141	     109.786808
	 B(4,1,5)         =         1.898863	     108.796833

	Current energy   :     -1394.7231279266

	Energy change for the previous step:
		Projected    :        -0.0000000000
		Actual       :         0.0000000290

	Performing BFGS update.
	Previous computed or guess Hessian on step 1.
	Denominators (dg)(dq) or (dq)(dq) are very small.
	 Skipping Hessian update for step 11.
	Denominators (dg)(dq) or (dq)(dq) are very small.
	 Skipping Hessian update for step 10.
	Denominators (dg)(dq) or (dq)(dq) are very small.
	 Skipping Hessian update for step 9.
	Steps to be used in Hessian update: 8 7
	Taking RFO optimization step.
	Going to follow RFO solution 1.
	Using RFO vector 1.
	Norm of target step-size    0.00000
	Projected energy change by RFO approximation:        -0.0000000000

	Back-transformation to cartesian coordinates...
	Successfully converged to displaced geometry.

	--- Internal Coordinate Step in ANG or DEG, aJ/ANG or AJ/DEG ---
	 ---------------------------------------------------------------------------
	   Coordinate                Previous        Force       Change         New 
	   ----------                --------       ------       ------       ------
	    1 R(1,2)          =      1.554178     0.000000     0.000000     1.554178
	    2 R(1,3)          =      1.554178     0.000001     0.000000     1.554178
	    3 R(1,4)          =      1.705642     0.000001     0.000000     1.705642
	    4 R(1,5)          =      1.705642     0.000001     0.000000     1.705642
	    5 B(2,1,3)        =    108.886878     0.000000     0.000011   108.886889
	    6 B(2,1,4)        =    109.786807    -0.000000    -0.000007   109.786800
	    7 B(2,1,5)        =    109.786805    -0.000000    -0.000002   109.786804
	    8 B(3,1,4)        =    109.786809     0.000000     0.000006   109.786815
	    9 B(3,1,5)        =    109.786808     0.000000     0.000012   109.786819
	   10 B(4,1,5)        =    108.796833    -0.000000    -0.000020   108.796813
	 ---------------------------------------------------------------------------
	Successfully symmetrized geometry.

  ==> Convergence Check <==

  Measures of convergence in internal coordinates in au.
  Criteria marked as inactive (o), active & met (*), and active & unmet ( ).
  ---------------------------------------------------------------------------------------------
   Step     Total Energy     Delta E     MAX Force     RMS Force      MAX Disp      RMS Disp   
  ---------------------------------------------------------------------------------------------
    Convergence Criteria             o    2.00e-06 *    1.00e-06 *    6.00e-06 *    4.00e-06 *
  ---------------------------------------------------------------------------------------------
     12   -1394.72312793    2.90e-08 o    1.29e-07 *    7.66e-08 *    3.51e-07 *    2.19e-07 *  ~
  ---------------------------------------------------------------------------------------------


  **** Optimization is complete! (in 12 steps) ****

  ==> Optimization Summary <==

  Measures of convergence in internal coordinates in au.
  --------------------------------------------------------------------------------------------------------------- ~
   Step         Total Energy             Delta E       MAX Force       RMS Force        MAX Disp        RMS Disp  ~
  --------------------------------------------------------------------------------------------------------------- ~
      1   -1394.720910179312  -1394.720910179312      0.02465082      0.01289551      0.05272480      0.02121298  ~
      2   -1394.722270210467     -0.001360031154      0.01762472      0.00849093      0.02616168      0.01438146  ~
      3   -1394.722944721708     -0.000674511241      0.00770916      0.00387980      0.01644432      0.00848901  ~
      4   -1394.723091127543     -0.000146405835      0.00179651      0.00093719      0.00393317      0.00243333  ~
      5   -1394.723109946765     -0.000018819222      0.00075238      0.00035784      0.00451427      0.00167656  ~
      6   -1394.723123593564     -0.000013646799      0.00031364      0.00016144      0.00163804      0.00058227  ~
      7   -1394.723127997658     -0.000004404095      0.00023113      0.00010444      0.00010811      0.00005828  ~
      8   -1394.723128284736     -0.000000287077      0.00016804      0.00007652      0.00009785      0.00004605  ~
      9   -1394.723128286189     -0.000000001454      0.00011084      0.00005108      0.00008629      0.00004307  ~
     10   -1394.723128209420      0.000000076769      0.00006060      0.00002854      0.00010302      0.00006098  ~
     11   -1394.723127955620      0.000000253801      0.00000238      0.00000130      0.00000812      0.00000431  ~
     12   -1394.723127926613      0.000000029006      0.00000013      0.00000008      0.00000035      0.00000022  ~
  --------------------------------------------------------------------------------------------------------------- ~

	Writing optimization data to binary file.
	Final energy is  -1394.7231279266134
	Final (previous) structure:
	Cartesian Geometry (in Angstrom)
	   CR    -0.0010610852   0.0706154868  -0.0155423032
	    O     1.0189016897   0.8113463612  -0.9246416414
	    O    -1.0475462972   1.0949708874   0.5050657841
	    F    -0.7855918407  -1.1540821642  -0.9065202739
	    F     0.8126089194  -0.6439208293   1.3022564336
	Saving final (previous) structure.
			--------------------------
			 OPTKING Finished Execution 
			--------------------------

    Final optimized geometry and variables:
    Molecular point group: c1
    Full point group: C1

    Geometry (in Angstrom), charge = 0, multiplicity = 1:

    CR          -0.001061085194     0.070615487040    -0.015542303211
    O            1.018901693696     0.811346364362    -0.924641645047
    O           -1.047546301341     1.094970891699     0.505065786056
    F           -0.785591843818    -1.154082168716    -0.906520277489
    F            0.812608922639    -0.643920831876     1.302256438753

	Removing binary optimization data file.
	Cleaning optimization helper files.

    Psi4 stopped on: Saturday, 10 July 2021 03:23PM
    Psi4 wall time for execution: 0:02:18.04

*** Psi4 exiting successfully. Buy a developer a beer!
