
    -----------------------------------------------------------------------
          Psi4: An Open-Source Ab Initio Electronic Structure Package
                               Psi4 1.3.2 release

                         Git: Rev {} zzzzzzz 


    R. M. Parrish, L. A. Burns, D. G. A. Smith, A. C. Simmonett,
    A. E. DePrince III, E. G. Hohenstein, U. Bozkaya, A. Yu. Sokolov,
    R. Di Remigio, R. M. Richard, J. F. Gonthier, A. M. James,
    H. R. McAlexander, A. Kumar, M. Saitow, X. Wang, B. P. Pritchard,
    P. Verma, H. F. Schaefer III, K. Patkowski, R. A. King, E. F. Valeev,
    F. A. Evangelista, J. M. Turney, T. D. Crawford, and C. D. Sherrill,
    J. Chem. Theory Comput. 13(7) pp 3185--3197 (2017).
    (doi: 10.1021/acs.jctc.7b00174)


                         Additional Contributions by
    P. Kraus, H. Kruse, M. H. Lechner, M. C. Schieber, R. A. Shaw,
    A. Alenaizan, R. Galvelis, Z. L. Glick, S. Lehtola, and J. P. Misiewicz

    -----------------------------------------------------------------------


    Psi4 started on: Saturday, 10 July 2021 03:16PM

    Process ID: 1862627
    Host:       thinkpad
    PSIDATADIR: /usr/share/psi4
    Memory:     500.0 MiB
    Threads:    4
    
  ==> Input File <==

--------------------------------------------------------------------------
memory 8 gb

molecule {
symmetry c1
Cr        0.48028725377749    0.32716919378518    0.12128381663197
O         1.51332165941332    1.03448648135578   -0.78955553051410
O        -0.57831537187616    1.32157128739802    0.65757817076212
F        -0.29602430869141   -0.85637252313759   -0.76598418135575
F         1.28459076737678   -0.35182443940140    1.41848772447575
}

set basis STO-3G
set geom_maxiter 250

# Use a (75,302) quadrature grid
set dft_radial_points 75
set dft_spherical_points 302

# Very tight geometry optimization
set g_convergence gau_verytight
# Increase allowed number of geometry optimization steps
set geom_maxiter 250

# Use the Hueckel type guess
set guess huckel

my_dft = {
    "name": "my r2scan",
    "x_functionals": {"mgga_x_r2scan": {}},
    "c_functionals": {"mgga_c_r2scan": {}}
}
optimize('scf', dft_functional=my_dft)
--------------------------------------------------------------------------

  Memory set to   7.451 GiB by Python driver.
gradient() will perform analytic gradient computation.

*** tstart() called on thinkpad
*** at Sat Jul 10 15:16:44 2021

   => Loading Basis Set <=

    Name: STO-3G
    Role: ORBITAL
    Keyword: BASIS
    atoms 1   entry CR         line   323 file /home/susi/dokumentit/tutkimus/linuxchemistry/suppinfo/psi4/transition_metals/sto-3g.gbs 
    atoms 2-3 entry O          line    79 file /home/susi/dokumentit/tutkimus/linuxchemistry/suppinfo/psi4/transition_metals/sto-3g.gbs 
    atoms 4-5 entry F          line    89 file /home/susi/dokumentit/tutkimus/linuxchemistry/suppinfo/psi4/transition_metals/sto-3g.gbs 


         ---------------------------------------------------------
                                   SCF
               by Justin Turney, Rob Parrish, Andy Simmonett
                          and Daniel G. A. Smith
                              RKS Reference
                        4 Threads,   7629 MiB Core
         ---------------------------------------------------------

  ==> Geometry <==

    Molecular point group: c1
    Full point group: C1

    Geometry (in Angstrom), charge = 0, multiplicity = 1:

       Center              X                  Y                   Z               Mass       
    ------------   -----------------  -----------------  -----------------  -----------------
         CR          -0.001007494106     0.066977222278    -0.014740872913    51.940506230000
         O            1.032026911530     0.774294509849    -0.925580220059    15.994914619570
         O           -1.059610119760     1.061379315891     0.521553481217    15.994914619570
         F           -0.777319056575    -1.116564494645    -0.902008870901    18.998403162730
         F            0.803296019493    -0.612016410908     1.282463034931    18.998403162730

  Running in c1 symmetry.

  Rotational constants: A =      0.15233  B =      0.13609  C =      0.12992 [cm^-1]
  Rotational constants: A =   4566.71939  B =   4079.72696  C =   3895.02954 [MHz]
  Nuclear repulsion =  355.181605515257786

  Charge       = 0
  Multiplicity = 1
  Electrons    = 58
  Nalpha       = 29
  Nbeta        = 29

  ==> Algorithm <==

  SCF Algorithm Type is DF.
  DIIS enabled.
  MOM disabled.
  Fractional occupation disabled.
  Guess Type is HUCKEL.
  Energy threshold   = 1.00e-08
  Density threshold  = 1.00e-08
  Integral threshold = 0.00e+00

  ==> Primary Basis <==

  Basis Set: STO-3G
    Blend: STO-3G
    Number of shells: 20
    Number of basis function: 38
    Number of Cartesian functions: 39
    Spherical Harmonics?: true
    Max angular momentum: 2

  ==> DFT Potential <==

   => Composite Functional: MY R2SCAN <= 

    Re-regularized SCAN exchange by Furness et al
    Re-regularized SCAN correlation by Furness et al
    J. W. Furness, A. D. Kaplan, J. Ning, J. P. Perdew, and J. Sun, J. Phys. Chem. Lett. 11, 8208 (2020)
    J. W. Furness, A. D. Kaplan, J. Ning, J. P. Perdew, and J. Sun, J. Phys. Chem. Lett. 11, 9248 (2020)

    Deriv               =              1
    GGA                 =           TRUE
    Meta                =           TRUE

    Exchange Hybrid     =          FALSE
    MP2 Hybrid          =          FALSE

   => Exchange Functionals <=

    1.0000   XC_mgga_x_r2scan

   => Correlation Functionals <=

    1.0000   XC_mgga_c_r2scan

   => Molecular Quadrature <=

    Radial Scheme          =       TREUTLER
    Pruning Scheme         =           FLAT
    Nuclear Scheme         =       TREUTLER

    BS radius alpha        =              1
    Pruning alpha          =              1
    Radial Points          =             75
    Spherical Points       =            302
    Total Points           =         109630
    Total Blocks           =            890
    Max Points             =            256
    Max Functions          =             35

   => Loading Basis Set <=

    Name: (STO-3G AUX)
    Role: JKFIT
    Keyword: DF_BASIS_SCF
    atoms 1   entry CR         line  1731 file /usr/share/psi4/basis/def2-svp-jkfit.gbs 
    atoms 2-3 entry O          line   323 file /usr/share/psi4/basis/def2-svp-jkfit.gbs 
    atoms 4-5 entry F          line   383 file /usr/share/psi4/basis/def2-svp-jkfit.gbs 

  ==> Pre-Iterations <==

   -------------------------------------------------------
    Irrep   Nso     Nmo     Nalpha   Nbeta   Ndocc  Nsocc
   -------------------------------------------------------
     A         38      38       0       0       0       0
   -------------------------------------------------------
    Total      38      38      29      29      29       0
   -------------------------------------------------------

  ==> Integral Setup <==

  DFHelper Memory: AOs need 0.009 GiB; user supplied 5.357 GiB. Using in-core AOs.

  ==> MemDFJK: Density-Fitted J/K Matrices <==

    J tasked:                   Yes
    K tasked:                    No
    wK tasked:                   No
    OpenMP threads:               4
    Memory [MiB]:              5485
    Algorithm:                 Core
    Schwarz Cutoff:           1E-12
    Mask sparsity (%):       2.9086
    Fitting Condition:        1E-10

   => Auxiliary Basis Set <=

  Basis Set: (STO-3G AUX)
    Blend: DEF2-SVP-JKFIT
    Number of shells: 158
    Number of basis function: 572
    Number of Cartesian functions: 749
    Spherical Harmonics?: true
    Max angular momentum: 6

  Cached 100.0% of DFT collocation blocks in 0.231 [GiB].

  Minimum eigenvalue in the overlap matrix is 2.5703358587E-01.
  Using Symmetric Orthogonalization.

  SCF Guess: Huckel guess via on-the-fly atomic UHF (doi:10.1021/acs.jctc.8b01089).

  ==> Iterations <==

                           Total Energy        Delta E     RMS |[F,P]|

   @DF-RKS iter   1: -1372.75303732260977   -1.37275e+03   6.63997e-02 DIIS
   @DF-RKS iter   2: -1355.46211009049671    1.72909e+01   9.73164e-02 DIIS
   @DF-RKS iter   3: -1375.23849519530904   -1.97764e+01   6.80578e-02 DIIS
   @DF-RKS iter   4: -1377.46858275434079   -2.23009e+00   4.10107e-02 DIIS
   @DF-RKS iter   5: -1378.46287113115295   -9.94288e-01   2.61917e-02 DIIS
   @DF-RKS iter   6: -1378.31481427013250    1.48057e-01   2.89868e-02 DIIS
   @DF-RKS iter   7: -1378.47164891188095   -1.56835e-01   2.61078e-02 DIIS
   @DF-RKS iter   8: -1378.45971464885815    1.19343e-02   2.63427e-02 DIIS
   @DF-RKS iter   9: -1378.40882614091561    5.08885e-02   2.76274e-02 DIIS
   @DF-RKS iter  10: -1378.87401264477694   -4.65187e-01   6.90722e-03 DIIS
   @DF-RKS iter  11: -1378.87063881225390    3.37383e-03   6.46556e-03 DIIS
   @DF-RKS iter  12: -1378.90356870624259   -3.29299e-02   8.80319e-04 DIIS
   @DF-RKS iter  13: -1378.90398540242131   -4.16696e-04   4.81014e-04 DIIS
   @DF-RKS iter  14: -1378.90416345473818   -1.78052e-04   5.49417e-05 DIIS
   @DF-RKS iter  15: -1378.90416591537110   -2.46063e-06   5.90517e-06 DIIS
   @DF-RKS iter  16: -1378.90416593622717   -2.08561e-08   8.91626e-07 DIIS
   @DF-RKS iter  17: -1378.90416593662394   -3.96767e-10   7.16771e-07 DIIS
   @DF-RKS iter  18: -1378.90416593691771   -2.93767e-10   7.23917e-08 DIIS
   @DF-RKS iter  19: -1378.90416593691953   -1.81899e-12   7.37380e-09 DIIS
  Energy and wave function converged.


  ==> Post-Iterations <==

    Orbital Energies [Eh]
    ---------------------

    Doubly Occupied:                                                      

       1A   -213.369302     2A    -24.447109     3A    -24.193316  
       4A    -24.193207     5A    -21.158848     6A    -21.158163  
       7A    -21.156146     8A    -18.658471     9A    -18.658222  
      10A     -3.000977    11A     -1.971603    12A     -1.969098  
      13A     -1.968904    14A     -1.052682    15A     -1.046790  
      16A     -0.820809    17A     -0.807807    18A     -0.309580  
      19A     -0.307311    20A     -0.293097    21A     -0.268061  
      22A     -0.262078    23A     -0.251890    24A     -0.246053  
      25A     -0.218546    26A     -0.198261    27A     -0.185413  
      28A     -0.177435    29A     -0.139177  

    Virtual:                                                              

      30A      0.005784    31A      0.031059    32A      0.067763  
      33A      0.103673    34A      0.113608    35A      0.276778  
      36A      0.465818    37A      0.495604    38A      0.535204  

    Final Occupation by Irrep:
              A 
    DOCC [    29 ]

  @DF-RKS Final Energy: -1378.90416593691953

   => Energetics <=

    Nuclear Repulsion Energy =            355.1816055152577860
    One-Electron Energy =               -2608.0844778007990499
    Two-Electron Energy =                 960.5462124391192447
    DFT Exchange-Correlation Energy =     -86.5475060904973645
    Empirical Dispersion Energy =           0.0000000000000000
    VV10 Nonlocal Energy =                  0.0000000000000000
    Total Energy =                      -1378.9041659369195258

Computation Completed


Properties will be evaluated at   0.000000,   0.000000,   0.000000 [a0]

Properties computed using the SCF density matrix

  Nuclear Dipole Moment: [e a0]
     X:    -0.0209      Y:     1.3901      Z:    -0.3060

  Electronic Dipole Moment: [e a0]
     X:     0.0282      Y:    -1.8799      Z:     0.4138

  Dipole Moment: [e a0]
     X:     0.0074      Y:    -0.4898      Z:     0.1078     Total:     0.5016

  Dipole Moment: [D]
     X:     0.0187      Y:    -1.2449      Z:     0.2740     Total:     1.2748


*** tstop() called on thinkpad at Sat Jul 10 15:16:50 2021
Module time:
	user time   =      14.03 seconds =       0.23 minutes
	system time =       0.16 seconds =       0.00 minutes
	total time  =          6 seconds =       0.10 minutes
Total time:
	user time   =      14.03 seconds =       0.23 minutes
	system time =       0.16 seconds =       0.00 minutes
	total time  =          6 seconds =       0.10 minutes

*** tstart() called on thinkpad
*** at Sat Jul 10 15:16:50 2021


         ------------------------------------------------------------
                                   SCF GRAD                          
                          Rob Parrish, Justin Turney,                
                       Andy Simmonett, and Alex Sokolov              
         ------------------------------------------------------------

  ==> Geometry <==

    Molecular point group: c1
    Full point group: C1

    Geometry (in Angstrom), charge = 0, multiplicity = 1:

       Center              X                  Y                   Z               Mass       
    ------------   -----------------  -----------------  -----------------  -----------------
         CR          -0.001007494106     0.066977222278    -0.014740872913    51.940506230000
         O            1.032026911530     0.774294509849    -0.925580220059    15.994914619570
         O           -1.059610119760     1.061379315891     0.521553481217    15.994914619570
         F           -0.777319056575    -1.116564494645    -0.902008870901    18.998403162730
         F            0.803296019493    -0.612016410908     1.282463034931    18.998403162730

  Nuclear repulsion =  355.181605515257786

  ==> Basis Set <==

  Basis Set: STO-3G
    Blend: STO-3G
    Number of shells: 20
    Number of basis function: 38
    Number of Cartesian functions: 39
    Spherical Harmonics?: true
    Max angular momentum: 2

  ==> DFJKGrad: Density-Fitted SCF Gradients <==

    Gradient:                    1
    J tasked:                  Yes
    K tasked:                   No
    wK tasked:                  No
    OpenMP threads:              4
    Integrals threads:           4
    Memory [MiB]:             5722
    Schwarz Cutoff:          0E+00
    Fitting Condition:       1E-10

   => Auxiliary Basis Set <=

  Basis Set: (STO-3G AUX)
    Blend: DEF2-SVP-JKFIT
    Number of shells: 158
    Number of basis function: 572
    Number of Cartesian functions: 749
    Spherical Harmonics?: true
    Max angular momentum: 6

  ==> DFT Potential <==

   => Composite Functional: MY R2SCAN <= 

    Re-regularized SCAN exchange by Furness et al
    Re-regularized SCAN correlation by Furness et al
    J. W. Furness, A. D. Kaplan, J. Ning, J. P. Perdew, and J. Sun, J. Phys. Chem. Lett. 11, 8208 (2020)
    J. W. Furness, A. D. Kaplan, J. Ning, J. P. Perdew, and J. Sun, J. Phys. Chem. Lett. 11, 9248 (2020)

    Deriv               =              1
    GGA                 =           TRUE
    Meta                =           TRUE

    Exchange Hybrid     =          FALSE
    MP2 Hybrid          =          FALSE

   => Exchange Functionals <=

    1.0000   XC_mgga_x_r2scan

   => Correlation Functionals <=

    1.0000   XC_mgga_c_r2scan

   => Molecular Quadrature <=

    Radial Scheme          =       TREUTLER
    Pruning Scheme         =           FLAT
    Nuclear Scheme         =       TREUTLER

    BS radius alpha        =              1
    Pruning alpha          =              1
    Radial Points          =             75
    Spherical Points       =            302
    Total Points           =         109630
    Total Blocks           =            890
    Max Points             =            256
    Max Functions          =             35


  -Total Gradient:
     Atom            X                  Y                   Z
    ------   -----------------  -----------------  -----------------
       1        0.000410398766    -0.027369937846     0.006024576181
       2        0.060524071136     0.034750055708    -0.051819380911
       3       -0.061820475869     0.051542889181     0.032826500602
       4       -0.030481123794    -0.042521390604    -0.035621739202
       5        0.031462620536    -0.022748257487     0.049986824824


*** tstop() called on thinkpad at Sat Jul 10 15:16:51 2021
Module time:
	user time   =       2.52 seconds =       0.04 minutes
	system time =       0.00 seconds =       0.00 minutes
	total time  =          1 seconds =       0.02 minutes
Total time:
	user time   =      16.55 seconds =       0.28 minutes
	system time =       0.16 seconds =       0.00 minutes
	total time  =          7 seconds =       0.12 minutes

			-----------------------------------------
			 OPTKING 2.0: for geometry optimizations 
			  - R.A. King,  Bethel University        
			-----------------------------------------

	Internal coordinates to be generated automatically.
	Detected frag 1 with atoms:  1 2 3 4 5
	---Fragment 1 Bond Connectivity---
	 1 : 2 3 4 5
	 2 : 1
	 3 : 1
	 4 : 1
	 5 : 1

	---Fragment 1 Geometry and Gradient---
	 CR         -0.0019038879        0.1265686067       -0.0278562127
	 O           1.9502482169        1.4632045641       -1.7490931231
	 O          -2.0023729261        2.0057162223        0.9855932393
	 F          -1.4689201290       -2.1100010963       -1.7045497287
	 F           1.5180094745       -1.1565434009        2.4235039020
	             0.0004103988       -0.0273699378        0.0060245762
	             0.0605240711        0.0347500557       -0.0518193809
	            -0.0618204759        0.0515428892        0.0328265006
	            -0.0304811238       -0.0425213906       -0.0356217392
	             0.0314626205       -0.0227482575        0.0499868248

	Previous optimization step data not found.  Starting new optimization.

	---Fragment 1 Intrafragment Coordinates---
	 - Coordinate -           - BOHR/RAD -       - ANG/DEG -
	 R(1,2)           =         2.925773	       1.548253
	 R(1,3)           =         2.925774	       1.548253
	 R(1,4)           =         3.156847	       1.670531
	 R(1,5)           =         3.156846	       1.670531
	 B(2,1,3)         =         1.946113	     111.504060
	 B(2,1,4)         =         1.897868	     108.739823
	 B(2,1,5)         =         1.897867	     108.739770
	 B(3,1,4)         =         1.897872	     108.740061
	 B(3,1,5)         =         1.897872	     108.740055
	 B(4,1,5)         =         1.926457	     110.377858

	Current energy   :     -1378.9041659369

	Generating empirical Hessian (Schlegel '84) for each fragment.
	Taking RFO optimization step.
	Going to follow RFO solution 1.
	Using RFO vector 1.
	Norm of target step-size    0.09896
	Projected energy change by RFO approximation:        -0.0139100967

	Back-transformation to cartesian coordinates...
	Successfully converged to displaced geometry.

	--- Internal Coordinate Step in ANG or DEG, aJ/ANG or AJ/DEG ---
	 ---------------------------------------------------------------------------
	   Coordinate                Previous        Force       Change         New 
	   ----------                --------       ------       ------       ------
	    1 R(1,2)          =      1.548253    -0.720688    -0.016774     1.531479
	    2 R(1,3)          =      1.548253    -0.720690    -0.016774     1.531479
	    3 R(1,4)          =      1.670531    -0.514658    -0.024388     1.646143
	    4 R(1,5)          =      1.670531    -0.514657    -0.024388     1.646143
	    5 B(2,1,3)        =    111.504060    -0.000671    -1.919902   109.584158
	    6 B(2,1,4)        =    108.739823     0.000339     0.980105   109.719928
	    7 B(2,1,5)        =    108.739770     0.000339     0.980164   109.719933
	    8 B(3,1,4)        =    108.740061     0.000339     0.979844   109.719904
	    9 B(3,1,5)        =    108.740055     0.000339     0.979856   109.719911
	   10 B(4,1,5)        =    110.377858    -0.000705    -2.019022   108.358836
	 ---------------------------------------------------------------------------
	Successfully symmetrized geometry.

  ==> Convergence Check <==

  Measures of convergence in internal coordinates in au.
  Criteria marked as inactive (o), active & met (*), and active & unmet ( ).
  --------------------------------------------------------------------------------------------- ~
   Step     Total Energy     Delta E     MAX Force     RMS Force      MAX Disp      RMS Disp    ~
  --------------------------------------------------------------------------------------------- ~
    Convergence Criteria             o    2.00e-06 *    1.00e-06 *    6.00e-06 *    4.00e-06 *  ~
  --------------------------------------------------------------------------------------------- ~
      1   -1378.90416594   -1.38e+03 o    8.75e-02      4.83e-02      4.61e-02      3.13e-02    ~
  ---------------------------------------------------------------------------------------------

	Writing optimization data to binary file.
	Structure for next step:
	Cartesian Geometry (in Angstrom)
	   CR    -0.0009946905   0.0662332501  -0.0145780307
	    O     1.0085923611   0.7881213764  -0.9118178250
	    O    -1.0364941461   1.0688137337   0.5031103430
	    F    -0.7559674938  -1.1200561812  -0.8704528593
	    F     0.7822502299  -0.6290420372   1.2554249245
			--------------------------
			 OPTKING Finished Execution 
			--------------------------

    Structure for next step:
    Molecular point group: c1
    Full point group: C1

    Geometry (in Angstrom), charge = 0, multiplicity = 1:

    CR          -0.001005997387     0.066957995052    -0.014737330222
    O            1.008581058181     0.788846124168    -0.911977128022
    O           -1.036505457112     1.069538482547     0.502951045514
    F           -0.755978803726    -1.119331440967    -0.870612162153
    F            0.782238926009    -0.628317295061     1.255265629947

gradient() will perform analytic gradient computation.

*** tstart() called on thinkpad
*** at Sat Jul 10 15:16:51 2021

   => Loading Basis Set <=

    Name: STO-3G
    Role: ORBITAL
    Keyword: BASIS
    atoms 1   entry CR         line   323 file /home/susi/dokumentit/tutkimus/linuxchemistry/suppinfo/psi4/transition_metals/sto-3g.gbs 
    atoms 2-3 entry O          line    79 file /home/susi/dokumentit/tutkimus/linuxchemistry/suppinfo/psi4/transition_metals/sto-3g.gbs 
    atoms 4-5 entry F          line    89 file /home/susi/dokumentit/tutkimus/linuxchemistry/suppinfo/psi4/transition_metals/sto-3g.gbs 


         ---------------------------------------------------------
                                   SCF
               by Justin Turney, Rob Parrish, Andy Simmonett
                          and Daniel G. A. Smith
                              RKS Reference
                        4 Threads,   7629 MiB Core
         ---------------------------------------------------------

  ==> Geometry <==

    Molecular point group: c1
    Full point group: C1

    Geometry (in Angstrom), charge = 0, multiplicity = 1:

       Center              X                  Y                   Z               Mass       
    ------------   -----------------  -----------------  -----------------  -----------------
         CR          -0.001005997387     0.066957995052    -0.014737330222    51.940506230000
         O            1.008581058181     0.788846124168    -0.911977128022    15.994914619570
         O           -1.036505457112     1.069538482547     0.502951045514    15.994914619570
         F           -0.755978803726    -1.119331440967    -0.870612162153    18.998403162730
         F            0.782238926009    -0.628317295061     1.255265629947    18.998403162730

  Running in c1 symmetry.

  Rotational constants: A =      0.15364  B =      0.14312  C =      0.13239 [cm^-1]
  Rotational constants: A =   4605.94475  B =   4290.64473  C =   3969.03978 [MHz]
  Nuclear repulsion =  359.778268273542380

  Charge       = 0
  Multiplicity = 1
  Electrons    = 58
  Nalpha       = 29
  Nbeta        = 29

  ==> Algorithm <==

  SCF Algorithm Type is DF.
  DIIS enabled.
  MOM disabled.
  Fractional occupation disabled.
  Guess Type is READ.
  Energy threshold   = 1.00e-08
  Density threshold  = 1.00e-08
  Integral threshold = 0.00e+00

  ==> Primary Basis <==

  Basis Set: STO-3G
    Blend: STO-3G
    Number of shells: 20
    Number of basis function: 38
    Number of Cartesian functions: 39
    Spherical Harmonics?: true
    Max angular momentum: 2

  ==> DFT Potential <==

   => Composite Functional: MY R2SCAN <= 

    Re-regularized SCAN exchange by Furness et al
    Re-regularized SCAN correlation by Furness et al
    J. W. Furness, A. D. Kaplan, J. Ning, J. P. Perdew, and J. Sun, J. Phys. Chem. Lett. 11, 8208 (2020)
    J. W. Furness, A. D. Kaplan, J. Ning, J. P. Perdew, and J. Sun, J. Phys. Chem. Lett. 11, 9248 (2020)

    Deriv               =              1
    GGA                 =           TRUE
    Meta                =           TRUE

    Exchange Hybrid     =          FALSE
    MP2 Hybrid          =          FALSE

   => Exchange Functionals <=

    1.0000   XC_mgga_x_r2scan

   => Correlation Functionals <=

    1.0000   XC_mgga_c_r2scan

   => Molecular Quadrature <=

    Radial Scheme          =       TREUTLER
    Pruning Scheme         =           FLAT
    Nuclear Scheme         =       TREUTLER

    BS radius alpha        =              1
    Pruning alpha          =              1
    Radial Points          =             75
    Spherical Points       =            302
    Total Points           =         109630
    Total Blocks           =            889
    Max Points             =            255
    Max Functions          =             36

   => Loading Basis Set <=

    Name: (STO-3G AUX)
    Role: JKFIT
    Keyword: DF_BASIS_SCF
    atoms 1   entry CR         line  1731 file /usr/share/psi4/basis/def2-svp-jkfit.gbs 
    atoms 2-3 entry O          line   323 file /usr/share/psi4/basis/def2-svp-jkfit.gbs 
    atoms 4-5 entry F          line   383 file /usr/share/psi4/basis/def2-svp-jkfit.gbs 

   => Loading Basis Set <=

    Name: STO-3G
    Role: ORBITAL
    Keyword: BASIS
    atoms 1   entry CR         line   323 file /home/susi/dokumentit/tutkimus/linuxchemistry/suppinfo/psi4/transition_metals/sto-3g.gbs 
    atoms 2-3 entry O          line    79 file /home/susi/dokumentit/tutkimus/linuxchemistry/suppinfo/psi4/transition_metals/sto-3g.gbs 
    atoms 4-5 entry F          line    89 file /home/susi/dokumentit/tutkimus/linuxchemistry/suppinfo/psi4/transition_metals/sto-3g.gbs 

  Reading orbitals from file 180, no projection.

  ==> Pre-Iterations <==

   -------------------------------------------------------
    Irrep   Nso     Nmo     Nalpha   Nbeta   Ndocc  Nsocc
   -------------------------------------------------------
     A         38      38       0       0       0       0
   -------------------------------------------------------
    Total      38      38      29      29      29       0
   -------------------------------------------------------

  ==> Integral Setup <==

  DFHelper Memory: AOs need 0.009 GiB; user supplied 5.356 GiB. Using in-core AOs.

  ==> MemDFJK: Density-Fitted J/K Matrices <==

    J tasked:                   Yes
    K tasked:                    No
    wK tasked:                   No
    OpenMP threads:               4
    Memory [MiB]:              5484
    Algorithm:                 Core
    Schwarz Cutoff:           1E-12
    Mask sparsity (%):       2.4931
    Fitting Condition:        1E-10

   => Auxiliary Basis Set <=

  Basis Set: (STO-3G AUX)
    Blend: DEF2-SVP-JKFIT
    Number of shells: 158
    Number of basis function: 572
    Number of Cartesian functions: 749
    Spherical Harmonics?: true
    Max angular momentum: 6

  Cached 100.0% of DFT collocation blocks in 0.232 [GiB].

  Minimum eigenvalue in the overlap matrix is 2.4831862925E-01.
  Using Symmetric Orthogonalization.

  SCF Guess: Orbitals guess was supplied from a previous computation.

  ==> Iterations <==

                           Total Energy        Delta E     RMS |[F,P]|

   @DF-RKS iter   0: -1378.93876982593042   -1.37894e+03   3.47964e-03 
   @DF-RKS iter   1: -1378.91351295433742    2.52569e-02   1.67356e-03 DIIS
   @DF-RKS iter   2: -1378.84233708674765    7.11759e-02   1.20454e-02 DIIS
   @DF-RKS iter   3: -1378.91496169237348   -7.26246e-02   3.88738e-04 DIIS
   @DF-RKS iter   4: -1378.91501406011730   -5.23677e-05   2.33276e-04 DIIS
   @DF-RKS iter   5: -1378.91504892576563   -3.48656e-05   6.74335e-06 DIIS
   @DF-RKS iter   6: -1378.91504896978017   -4.40145e-08   1.67175e-06 DIIS
   @DF-RKS iter   7: -1378.91504897126401   -1.48384e-09   4.18553e-07 DIIS
   @DF-RKS iter   8: -1378.91504897140157   -1.37561e-10   7.74791e-08 DIIS
   @DF-RKS iter   9: -1378.91504897140567   -4.09273e-12   8.42616e-09 DIIS
  Energy and wave function converged.


  ==> Post-Iterations <==

    Orbital Energies [Eh]
    ---------------------

    Doubly Occupied:                                                      

       1A   -213.362688     2A    -24.442110     3A    -24.198919  
       4A    -24.198757     5A    -21.153769     6A    -21.152909  
       7A    -21.151190     8A    -18.658617     9A    -18.658312  
      10A     -2.999505    11A     -1.971606    12A     -1.968756  
      13A     -1.967806    14A     -1.057942    15A     -1.052114  
      16A     -0.820748    17A     -0.808540    18A     -0.318315  
      19A     -0.312116    20A     -0.301381    21A     -0.277282  
      22A     -0.269050    23A     -0.254614    24A     -0.250076  
      25A     -0.219871    26A     -0.196971    27A     -0.188127  
      28A     -0.179986    29A     -0.139019  

    Virtual:                                                              

      30A      0.013809    31A      0.036999    32A      0.081755  
      33A      0.111629    34A      0.126134    35A      0.282369  
      36A      0.470514    37A      0.517845    38A      0.540044  

    Final Occupation by Irrep:
              A 
    DOCC [    29 ]

  @DF-RKS Final Energy: -1378.91504897140567

   => Energetics <=

    Nuclear Repulsion Energy =            359.7782682735423805
    One-Electron Energy =               -2617.1944544226303151
    Two-Electron Energy =                 965.0817029137385816
    DFT Exchange-Correlation Energy =     -86.5805657360562151
    Empirical Dispersion Energy =           0.0000000000000000
    VV10 Nonlocal Energy =                  0.0000000000000000
    Total Energy =                      -1378.9150489714056675

Computation Completed


Properties will be evaluated at   0.000000,   0.000000,   0.000000 [a0]

Properties computed using the SCF density matrix

  Nuclear Dipole Moment: [e a0]
     X:    -0.0212      Y:     1.4083      Z:    -0.3100

  Electronic Dipole Moment: [e a0]
     X:     0.0288      Y:    -1.9142      Z:     0.4213

  Dipole Moment: [e a0]
     X:     0.0076      Y:    -0.5059      Z:     0.1113     Total:     0.5181

  Dipole Moment: [D]
     X:     0.0193      Y:    -1.2859      Z:     0.2830     Total:     1.3168


*** tstop() called on thinkpad at Sat Jul 10 15:16:54 2021
Module time:
	user time   =       7.25 seconds =       0.12 minutes
	system time =       0.04 seconds =       0.00 minutes
	total time  =          3 seconds =       0.05 minutes
Total time:
	user time   =      23.84 seconds =       0.40 minutes
	system time =       0.20 seconds =       0.00 minutes
	total time  =         10 seconds =       0.17 minutes

*** tstart() called on thinkpad
*** at Sat Jul 10 15:16:54 2021


         ------------------------------------------------------------
                                   SCF GRAD                          
                          Rob Parrish, Justin Turney,                
                       Andy Simmonett, and Alex Sokolov              
         ------------------------------------------------------------

  ==> Geometry <==

    Molecular point group: c1
    Full point group: C1

    Geometry (in Angstrom), charge = 0, multiplicity = 1:

       Center              X                  Y                   Z               Mass       
    ------------   -----------------  -----------------  -----------------  -----------------
         CR          -0.001005997387     0.066957995052    -0.014737330222    51.940506230000
         O            1.008581058181     0.788846124168    -0.911977128022    15.994914619570
         O           -1.036505457112     1.069538482547     0.502951045514    15.994914619570
         F           -0.755978803726    -1.119331440967    -0.870612162153    18.998403162730
         F            0.782238926009    -0.628317295061     1.255265629947    18.998403162730

  Nuclear repulsion =  359.778268273542380

  ==> Basis Set <==

  Basis Set: STO-3G
    Blend: STO-3G
    Number of shells: 20
    Number of basis function: 38
    Number of Cartesian functions: 39
    Spherical Harmonics?: true
    Max angular momentum: 2

  ==> DFJKGrad: Density-Fitted SCF Gradients <==

    Gradient:                    1
    J tasked:                  Yes
    K tasked:                   No
    wK tasked:                  No
    OpenMP threads:              4
    Integrals threads:           4
    Memory [MiB]:             5722
    Schwarz Cutoff:          0E+00
    Fitting Condition:       1E-10

   => Auxiliary Basis Set <=

  Basis Set: (STO-3G AUX)
    Blend: DEF2-SVP-JKFIT
    Number of shells: 158
    Number of basis function: 572
    Number of Cartesian functions: 749
    Spherical Harmonics?: true
    Max angular momentum: 6

  ==> DFT Potential <==

   => Composite Functional: MY R2SCAN <= 

    Re-regularized SCAN exchange by Furness et al
    Re-regularized SCAN correlation by Furness et al
    J. W. Furness, A. D. Kaplan, J. Ning, J. P. Perdew, and J. Sun, J. Phys. Chem. Lett. 11, 8208 (2020)
    J. W. Furness, A. D. Kaplan, J. Ning, J. P. Perdew, and J. Sun, J. Phys. Chem. Lett. 11, 9248 (2020)

    Deriv               =              1
    GGA                 =           TRUE
    Meta                =           TRUE

    Exchange Hybrid     =          FALSE
    MP2 Hybrid          =          FALSE

   => Exchange Functionals <=

    1.0000   XC_mgga_x_r2scan

   => Correlation Functionals <=

    1.0000   XC_mgga_c_r2scan

   => Molecular Quadrature <=

    Radial Scheme          =       TREUTLER
    Pruning Scheme         =           FLAT
    Nuclear Scheme         =       TREUTLER

    BS radius alpha        =              1
    Pruning alpha          =              1
    Radial Points          =             75
    Spherical Points       =            302
    Total Points           =         109630
    Total Blocks           =            889
    Max Points             =            255
    Max Functions          =             36


  -Total Gradient:
     Atom            X                  Y                   Z
    ------   -----------------  -----------------  -----------------
       1        0.000387030317    -0.025741912434     0.005665699928
       2        0.040610757171     0.028832150892    -0.036044024009
       3       -0.041646988440     0.040122227340     0.020867399374
       4       -0.020422134078    -0.031427907084    -0.023282705659
       5        0.021167018175    -0.018152188664     0.034195136357


*** tstop() called on thinkpad at Sat Jul 10 15:16:55 2021
Module time:
	user time   =       2.52 seconds =       0.04 minutes
	system time =       0.00 seconds =       0.00 minutes
	total time  =          1 seconds =       0.02 minutes
Total time:
	user time   =      26.37 seconds =       0.44 minutes
	system time =       0.20 seconds =       0.00 minutes
	total time  =         11 seconds =       0.18 minutes

			-----------------------------------------
			 OPTKING 2.0: for geometry optimizations 
			  - R.A. King,  Bethel University        
			-----------------------------------------

	Previous internal coordinate definitions found.
	---Fragment 1 Geometry and Gradient---
	 CR         -0.0019010595        0.1265322726       -0.0278495179
	 O           1.9059419753        1.4907031298       -1.7233870046
	 O          -1.9587114415        2.0211348127        0.9504397305
	 F          -1.4285928957       -2.1152298670       -1.6452185480
	 F           1.4782173348       -1.1873476076        2.3721082553
	             0.0003870303       -0.0257419124        0.0056656999
	             0.0406107572        0.0288321509       -0.0360440240
	            -0.0416469884        0.0401222273        0.0208673994
	            -0.0204221341       -0.0314279071       -0.0232827057
	             0.0211670182       -0.0181521887        0.0341951364

	---Fragment 1 Intrafragment Coordinates---
	 - Coordinate -           - BOHR/RAD -       - ANG/DEG -
	 R(1,2)           =         2.894076	       1.531479
	 R(1,3)           =         2.894076	       1.531479
	 R(1,4)           =         3.110760	       1.646143
	 R(1,5)           =         3.110760	       1.646143
	 B(2,1,3)         =         1.912604	     109.584158
	 B(2,1,4)         =         1.914974	     109.719928
	 B(2,1,5)         =         1.914974	     109.719933
	 B(3,1,4)         =         1.914974	     109.719904
	 B(3,1,5)         =         1.914974	     109.719911
	 B(4,1,5)         =         1.891218	     108.358836

	Current energy   :     -1378.9150489714

	Energy change for the previous step:
		Projected    :        -0.0139100967
		Actual       :        -0.0108830345
	Energy ratio indicates good step: Trust radius increased to 1.000e+00.


	Performing BFGS update.
	Previous computed or guess Hessian on step 1.
	Steps to be used in Hessian update: 1
	Taking RFO optimization step.
	Going to follow RFO solution 1.
	Using RFO vector 1.
	Norm of target step-size    0.18985
	Projected energy change by RFO approximation:        -0.0137272214

	Back-transformation to cartesian coordinates...
	Successfully converged to displaced geometry.

	--- Internal Coordinate Step in ANG or DEG, aJ/ANG or AJ/DEG ---
	 ---------------------------------------------------------------------------
	   Coordinate                Previous        Force       Change         New 
	   ----------                --------       ------       ------       ------
	    1 R(1,2)          =      1.531479    -0.512703    -0.038736     1.492743
	    2 R(1,3)          =      1.531479    -0.512704    -0.038736     1.492743
	    3 R(1,4)          =      1.646143    -0.357204    -0.054754     1.591390
	    4 R(1,5)          =      1.646143    -0.357203    -0.054754     1.591390
	    5 B(2,1,3)        =    109.584158     0.000227     1.437282   111.021440
	    6 B(2,1,4)        =    109.719928     0.000029     0.398398   110.118325
	    7 B(2,1,5)        =    109.719933     0.000029     0.398403   110.118337
	    8 B(3,1,4)        =    109.719904     0.000029     0.398416   110.118320
	    9 B(3,1,5)        =    109.719911     0.000029     0.398410   110.118321
	   10 B(4,1,5)        =    108.358836    -0.000349    -3.167048   105.191787
	 ---------------------------------------------------------------------------
	Successfully symmetrized geometry.

  ==> Convergence Check <==

  Measures of convergence in internal coordinates in au.
  Criteria marked as inactive (o), active & met (*), and active & unmet ( ).
  ---------------------------------------------------------------------------------------------
   Step     Total Energy     Delta E     MAX Force     RMS Force      MAX Disp      RMS Disp   
  ---------------------------------------------------------------------------------------------
    Convergence Criteria             o    2.00e-06 *    1.00e-06 *    6.00e-06 *    4.00e-06 *
  ---------------------------------------------------------------------------------------------
      2   -1378.91504897   -1.09e-02 o    6.22e-02      3.40e-02      1.03e-01      6.00e-02    ~
  ---------------------------------------------------------------------------------------------

	Writing optimization data to binary file.
	Structure for next step:
	Cartesian Geometry (in Angstrom)
	   CR    -0.0012464900   0.0829560221  -0.0182584204
	    O     0.9917727072   0.7703808319  -0.8955503044
	    O    -1.0190715960   1.0463734746   0.4956869004
	    F    -0.7154752888  -1.0935247002  -0.8171895241
	    F     0.7413503937  -0.6284917634   1.1962014037
			--------------------------
			 OPTKING Finished Execution 
			--------------------------

    Structure for next step:
    Molecular point group: c1
    Full point group: C1

    Geometry (in Angstrom), charge = 0, multiplicity = 1:

    CR          -0.001166105589     0.077608199434    -0.017081388741
    O            0.991853095566     0.765033011911    -0.894373276174
    O           -1.018991215599     1.041025655707     0.496863934059
    F           -0.715394907196    -1.098872527503    -0.816012495608
    F            0.741430781014    -0.633839588916     1.197378440096

gradient() will perform analytic gradient computation.

*** tstart() called on thinkpad
*** at Sat Jul 10 15:16:55 2021

   => Loading Basis Set <=

    Name: STO-3G
    Role: ORBITAL
    Keyword: BASIS
    atoms 1   entry CR         line   323 file /home/susi/dokumentit/tutkimus/linuxchemistry/suppinfo/psi4/transition_metals/sto-3g.gbs 
    atoms 2-3 entry O          line    79 file /home/susi/dokumentit/tutkimus/linuxchemistry/suppinfo/psi4/transition_metals/sto-3g.gbs 
    atoms 4-5 entry F          line    89 file /home/susi/dokumentit/tutkimus/linuxchemistry/suppinfo/psi4/transition_metals/sto-3g.gbs 


         ---------------------------------------------------------
                                   SCF
               by Justin Turney, Rob Parrish, Andy Simmonett
                          and Daniel G. A. Smith
                              RKS Reference
                        4 Threads,   7629 MiB Core
         ---------------------------------------------------------

  ==> Geometry <==

    Molecular point group: c1
    Full point group: C1

    Geometry (in Angstrom), charge = 0, multiplicity = 1:

       Center              X                  Y                   Z               Mass       
    ------------   -----------------  -----------------  -----------------  -----------------
         CR          -0.001166105589     0.077608199434    -0.017081388741    51.940506230000
         O            0.991853095566     0.765033011911    -0.894373276174    15.994914619570
         O           -1.018991215599     1.041025655707     0.496863934059    15.994914619570
         F           -0.715394907196    -1.098872527503    -0.816012495608    18.998403162730
         F            0.741430781014    -0.633839588916     1.197378440096    18.998403162730

  Running in c1 symmetry.

  Rotational constants: A =      0.15901  B =      0.15445  C =      0.14248 [cm^-1]
  Rotational constants: A =   4766.92645  B =   4630.20124  C =   4271.51908 [MHz]
  Nuclear repulsion =  370.761599313663567

  Charge       = 0
  Multiplicity = 1
  Electrons    = 58
  Nalpha       = 29
  Nbeta        = 29

  ==> Algorithm <==

  SCF Algorithm Type is DF.
  DIIS enabled.
  MOM disabled.
  Fractional occupation disabled.
  Guess Type is READ.
  Energy threshold   = 1.00e-08
  Density threshold  = 1.00e-08
  Integral threshold = 0.00e+00

  ==> Primary Basis <==

  Basis Set: STO-3G
    Blend: STO-3G
    Number of shells: 20
    Number of basis function: 38
    Number of Cartesian functions: 39
    Spherical Harmonics?: true
    Max angular momentum: 2

  ==> DFT Potential <==

   => Composite Functional: MY R2SCAN <= 

    Re-regularized SCAN exchange by Furness et al
    Re-regularized SCAN correlation by Furness et al
    J. W. Furness, A. D. Kaplan, J. Ning, J. P. Perdew, and J. Sun, J. Phys. Chem. Lett. 11, 8208 (2020)
    J. W. Furness, A. D. Kaplan, J. Ning, J. P. Perdew, and J. Sun, J. Phys. Chem. Lett. 11, 9248 (2020)

    Deriv               =              1
    GGA                 =           TRUE
    Meta                =           TRUE

    Exchange Hybrid     =          FALSE
    MP2 Hybrid          =          FALSE

   => Exchange Functionals <=

    1.0000   XC_mgga_x_r2scan

   => Correlation Functionals <=

    1.0000   XC_mgga_c_r2scan

   => Molecular Quadrature <=

    Radial Scheme          =       TREUTLER
    Pruning Scheme         =           FLAT
    Nuclear Scheme         =       TREUTLER

    BS radius alpha        =              1
    Pruning alpha          =              1
    Radial Points          =             75
    Spherical Points       =            302
    Total Points           =         109616
    Total Blocks           =            891
    Max Points             =            256
    Max Functions          =             35

   => Loading Basis Set <=

    Name: (STO-3G AUX)
    Role: JKFIT
    Keyword: DF_BASIS_SCF
    atoms 1   entry CR         line  1731 file /usr/share/psi4/basis/def2-svp-jkfit.gbs 
    atoms 2-3 entry O          line   323 file /usr/share/psi4/basis/def2-svp-jkfit.gbs 
    atoms 4-5 entry F          line   383 file /usr/share/psi4/basis/def2-svp-jkfit.gbs 

   => Loading Basis Set <=

    Name: STO-3G
    Role: ORBITAL
    Keyword: BASIS
    atoms 1   entry CR         line   323 file /home/susi/dokumentit/tutkimus/linuxchemistry/suppinfo/psi4/transition_metals/sto-3g.gbs 
    atoms 2-3 entry O          line    79 file /home/susi/dokumentit/tutkimus/linuxchemistry/suppinfo/psi4/transition_metals/sto-3g.gbs 
    atoms 4-5 entry F          line    89 file /home/susi/dokumentit/tutkimus/linuxchemistry/suppinfo/psi4/transition_metals/sto-3g.gbs 

  Reading orbitals from file 180, no projection.

  ==> Pre-Iterations <==

   -------------------------------------------------------
    Irrep   Nso     Nmo     Nalpha   Nbeta   Ndocc  Nsocc
   -------------------------------------------------------
     A         38      38       0       0       0       0
   -------------------------------------------------------
    Total      38      38      29      29      29       0
   -------------------------------------------------------

  ==> Integral Setup <==

  DFHelper Memory: AOs need 0.009 GiB; user supplied 5.356 GiB. Using in-core AOs.

  ==> MemDFJK: Density-Fitted J/K Matrices <==

    J tasked:                   Yes
    K tasked:                    No
    wK tasked:                   No
    OpenMP threads:               4
    Memory [MiB]:              5484
    Algorithm:                 Core
    Schwarz Cutoff:           1E-12
    Mask sparsity (%):       2.4931
    Fitting Condition:        1E-10

   => Auxiliary Basis Set <=

  Basis Set: (STO-3G AUX)
    Blend: DEF2-SVP-JKFIT
    Number of shells: 158
    Number of basis function: 572
    Number of Cartesian functions: 749
    Spherical Harmonics?: true
    Max angular momentum: 6

  Cached 100.0% of DFT collocation blocks in 0.232 [GiB].

  Minimum eigenvalue in the overlap matrix is 2.4037133137E-01.
  Using Symmetric Orthogonalization.

  SCF Guess: Orbitals guess was supplied from a previous computation.

  ==> Iterations <==

                           Total Energy        Delta E     RMS |[F,P]|

   @DF-RKS iter   0: -1378.98587826224639   -1.37899e+03   8.25905e-03 
   @DF-RKS iter   1: -1378.91705833617084    6.88199e-02   3.41482e-03 DIIS
   @DF-RKS iter   2: -1378.64747035676601    2.69588e-01   2.35937e-02 DIIS
   @DF-RKS iter   3: -1378.92315374887949   -2.75683e-01   1.07412e-03 DIIS
   @DF-RKS iter   4: -1378.92372426293764   -5.70514e-04   2.36735e-04 DIIS
   @DF-RKS iter   5: -1378.92376982595533   -4.55630e-05   2.13707e-05 DIIS
   @DF-RKS iter   6: -1378.92377025754081   -4.31585e-07   1.97197e-06 DIIS
   @DF-RKS iter   7: -1378.92377025968585   -2.14504e-09   4.85601e-07 DIIS
   @DF-RKS iter   8: -1378.92377025980727   -1.21418e-10   7.58617e-08 DIIS
   @DF-RKS iter   9: -1378.92377025981159   -4.32010e-12   1.84553e-08 DIIS
   @DF-RKS iter  10: -1378.92377025981204   -4.54747e-13   1.44387e-09 DIIS
  Energy and wave function converged.


  ==> Post-Iterations <==

    Orbital Energies [Eh]
    ---------------------

    Doubly Occupied:                                                      

       1A   -213.346176     2A    -24.429966     3A    -24.213037  
       4A    -24.212769     5A    -21.141389     6A    -21.140346  
       7A    -21.138851     8A    -18.658727     9A    -18.658445  
      10A     -2.997092    11A     -1.972168    12A     -1.970059  
      13A     -1.967037    14A     -1.070249    15A     -1.064529  
      16A     -0.821906    17A     -0.807903    18A     -0.337960  
      19A     -0.327344    20A     -0.321973    21A     -0.298952  
      22A     -0.289327    23A     -0.259810    24A     -0.259618  
      25A     -0.220631    26A     -0.192906    27A     -0.192331  
      28A     -0.186727    29A     -0.139748  

    Virtual:                                                              

      30A      0.028709    31A      0.054977    32A      0.110100  
      33A      0.136607    34A      0.152648    35A      0.301961  
      36A      0.485156    37A      0.542638    38A      0.567242  

    Final Occupation by Irrep:
              A 
    DOCC [    29 ]

  @DF-RKS Final Energy: -1378.92377025981204

   => Energetics <=

    Nuclear Repulsion Energy =            370.7615993136635666
    One-Electron Energy =               -2638.9160106463450575
    Two-Electron Energy =                 975.8939565323038323
    DFT Exchange-Correlation Energy =     -86.6633154594347133
    Empirical Dispersion Energy =           0.0000000000000000
    VV10 Nonlocal Energy =                  0.0000000000000000
    Total Energy =                      -1378.9237702598120450

Computation Completed


Properties will be evaluated at   0.000000,   0.000000,   0.000000 [a0]

Properties computed using the SCF density matrix

  Nuclear Dipole Moment: [e a0]
     X:    -0.0203      Y:     1.3543      Z:    -0.2981

  Electronic Dipole Moment: [e a0]
     X:     0.0281      Y:    -1.8704      Z:     0.4117

  Dipole Moment: [e a0]
     X:     0.0078      Y:    -0.5161      Z:     0.1136     Total:     0.5285

  Dipole Moment: [D]
     X:     0.0197      Y:    -1.3118      Z:     0.2887     Total:     1.3434


*** tstop() called on thinkpad at Sat Jul 10 15:16:58 2021
Module time:
	user time   =       7.82 seconds =       0.13 minutes
	system time =       0.04 seconds =       0.00 minutes
	total time  =          3 seconds =       0.05 minutes
Total time:
	user time   =      34.23 seconds =       0.57 minutes
	system time =       0.24 seconds =       0.00 minutes
	total time  =         14 seconds =       0.23 minutes

*** tstart() called on thinkpad
*** at Sat Jul 10 15:16:58 2021


         ------------------------------------------------------------
                                   SCF GRAD                          
                          Rob Parrish, Justin Turney,                
                       Andy Simmonett, and Alex Sokolov              
         ------------------------------------------------------------

  ==> Geometry <==

    Molecular point group: c1
    Full point group: C1

    Geometry (in Angstrom), charge = 0, multiplicity = 1:

       Center              X                  Y                   Z               Mass       
    ------------   -----------------  -----------------  -----------------  -----------------
         CR          -0.001166105589     0.077608199434    -0.017081388741    51.940506230000
         O            0.991853095566     0.765033011911    -0.894373276174    15.994914619570
         O           -1.018991215599     1.041025655707     0.496863934059    15.994914619570
         F           -0.715394907196    -1.098872527503    -0.816012495608    18.998403162730
         F            0.741430781014    -0.633839588916     1.197378440096    18.998403162730

  Nuclear repulsion =  370.761599313663567

  ==> Basis Set <==

  Basis Set: STO-3G
    Blend: STO-3G
    Number of shells: 20
    Number of basis function: 38
    Number of Cartesian functions: 39
    Spherical Harmonics?: true
    Max angular momentum: 2

  ==> DFJKGrad: Density-Fitted SCF Gradients <==

    Gradient:                    1
    J tasked:                  Yes
    K tasked:                   No
    wK tasked:                  No
    OpenMP threads:              4
    Integrals threads:           4
    Memory [MiB]:             5722
    Schwarz Cutoff:          0E+00
    Fitting Condition:       1E-10

   => Auxiliary Basis Set <=

  Basis Set: (STO-3G AUX)
    Blend: DEF2-SVP-JKFIT
    Number of shells: 158
    Number of basis function: 572
    Number of Cartesian functions: 749
    Spherical Harmonics?: true
    Max angular momentum: 6

  ==> DFT Potential <==

   => Composite Functional: MY R2SCAN <= 

    Re-regularized SCAN exchange by Furness et al
    Re-regularized SCAN correlation by Furness et al
    J. W. Furness, A. D. Kaplan, J. Ning, J. P. Perdew, and J. Sun, J. Phys. Chem. Lett. 11, 8208 (2020)
    J. W. Furness, A. D. Kaplan, J. Ning, J. P. Perdew, and J. Sun, J. Phys. Chem. Lett. 11, 9248 (2020)

    Deriv               =              1
    GGA                 =           TRUE
    Meta                =           TRUE

    Exchange Hybrid     =          FALSE
    MP2 Hybrid          =          FALSE

   => Exchange Functionals <=

    1.0000   XC_mgga_x_r2scan

   => Correlation Functionals <=

    1.0000   XC_mgga_c_r2scan

   => Molecular Quadrature <=

    Radial Scheme          =       TREUTLER
    Pruning Scheme         =           FLAT
    Nuclear Scheme         =       TREUTLER

    BS radius alpha        =              1
    Pruning alpha          =              1
    Radial Points          =             75
    Spherical Points       =            302
    Total Points           =         109616
    Total Blocks           =            891
    Max Points             =            256
    Max Functions          =             35


  -Total Gradient:
     Atom            X                  Y                   Z
    ------   -----------------  -----------------  -----------------
       1       -0.000037162565     0.002474902371    -0.000544753138
       2       -0.005376832196    -0.008143116217     0.005771291564
       3        0.005644257795    -0.009655813716    -0.001853809690
       4        0.006541046713     0.006298344779     0.008204751943
       5       -0.006666974338     0.002082162448    -0.010049219621


*** tstop() called on thinkpad at Sat Jul 10 15:17:00 2021
Module time:
	user time   =       2.52 seconds =       0.04 minutes
	system time =       0.00 seconds =       0.00 minutes
	total time  =          2 seconds =       0.03 minutes
Total time:
	user time   =      36.75 seconds =       0.61 minutes
	system time =       0.24 seconds =       0.00 minutes
	total time  =         16 seconds =       0.27 minutes

			-----------------------------------------
			 OPTKING 2.0: for geometry optimizations 
			  - R.A. King,  Bethel University        
			-----------------------------------------

	Previous internal coordinate definitions found.
	---Fragment 1 Geometry and Gradient---
	 CR         -0.0022036202        0.1466582420       -0.0322791466
	 O           1.8743307073        1.4457028694       -1.6901205459
	 O          -1.9256143217        1.9672533789        0.9389367570
	 F          -1.3519004461       -2.0765681238       -1.5420401316
	 F           1.4011011171       -1.1977832305        2.2627173203
	            -0.0000371626        0.0024749024       -0.0005447531
	            -0.0053768322       -0.0081431162        0.0057712916
	             0.0056442578       -0.0096558137       -0.0018538097
	             0.0065410467        0.0062983448        0.0082047519
	            -0.0066669743        0.0020821624       -0.0100492196

	---Fragment 1 Intrafragment Coordinates---
	 - Coordinate -           - BOHR/RAD -       - ANG/DEG -
	 R(1,2)           =         2.820875	       1.492743
	 R(1,3)           =         2.820875	       1.492743
	 R(1,4)           =         3.007290	       1.591390
	 R(1,5)           =         3.007290	       1.591390
	 B(2,1,3)         =         1.937690	     111.021440
	 B(2,1,4)         =         1.921927	     110.118325
	 B(2,1,5)         =         1.921928	     110.118337
	 B(3,1,4)         =         1.921927	     110.118320
	 B(3,1,5)         =         1.921927	     110.118321
	 B(4,1,5)         =         1.835943	     105.191787

	Current energy   :     -1378.9237702598

	Energy change for the previous step:
		Projected    :        -0.0137272214
		Actual       :        -0.0087212884

	Performing BFGS update.
	Previous computed or guess Hessian on step 1.
	Steps to be used in Hessian update: 2 1
	Taking RFO optimization step.
	Going to follow RFO solution 1.
	Using RFO vector 1.
	Norm of target step-size    0.05502
	Projected energy change by RFO approximation:        -0.0009822625

	Back-transformation to cartesian coordinates...
	Successfully converged to displaced geometry.

	--- Internal Coordinate Step in ANG or DEG, aJ/ANG or AJ/DEG ---
	 ---------------------------------------------------------------------------
	   Coordinate                Previous        Force       Change         New 
	   ----------                --------       ------       ------       ------
	    1 R(1,2)          =      1.492743     0.081674     0.006963     1.499706
	    2 R(1,3)          =      1.492743     0.081674     0.006963     1.499706
	    3 R(1,4)          =      1.591390     0.103600     0.011763     1.603152
	    4 R(1,5)          =      1.591390     0.103600     0.011763     1.603152
	    5 B(2,1,3)        =    111.021440    -0.000533    -1.402586   109.618854
	    6 B(2,1,4)        =    110.118325     0.000008    -0.091007   110.027318
	    7 B(2,1,5)        =    110.118337     0.000008    -0.091028   110.027308
	    8 B(3,1,4)        =    110.118320     0.000008    -0.090988   110.027332
	    9 B(3,1,5)        =    110.118321     0.000008    -0.090994   110.027327
	   10 B(4,1,5)        =    105.191787     0.000562     1.889055   107.080842
	 ---------------------------------------------------------------------------
	Successfully symmetrized geometry.

  ==> Convergence Check <==

  Measures of convergence in internal coordinates in au.
  Criteria marked as inactive (o), active & met (*), and active & unmet ( ).
  ---------------------------------------------------------------------------------------------
   Step     Total Energy     Delta E     MAX Force     RMS Force      MAX Disp      RMS Disp   
  ---------------------------------------------------------------------------------------------
    Convergence Criteria             o    2.00e-06 *    1.00e-06 *    6.00e-06 *    4.00e-06 *
  ---------------------------------------------------------------------------------------------
      3   -1378.92377026   -8.72e-03 o    1.26e-02      7.85e-03      3.30e-02      1.74e-02    ~
  ---------------------------------------------------------------------------------------------

	Writing optimization data to binary file.
	Structure for next step:
	Cartesian Geometry (in Angstrom)
	   CR    -0.0009726618   0.0647226234  -0.0142452729
	    O     0.9878882281   0.7712419587  -0.8929383272
	    O    -1.0151969535   1.0461699249   0.4929303842
	    F    -0.7299403223  -1.1027458070  -0.8362676984
	    F     0.7559533577  -0.6284339499   1.2172961281
			--------------------------
			 OPTKING Finished Execution 
			--------------------------

    Structure for next step:
    Molecular point group: c1
    Full point group: C1

    Geometry (in Angstrom), charge = 0, multiplicity = 1:

    CR          -0.001029128779     0.068483699580    -0.015073079974
    O            0.987831764991     0.775003037741    -0.893766137763
    O           -1.015253424415     1.049931004936     0.492102579101
    F           -0.729996792179    -1.098984735404    -0.837095508659
    F            0.755896893717    -0.624672876405     1.216468325899

gradient() will perform analytic gradient computation.

*** tstart() called on thinkpad
*** at Sat Jul 10 15:17:00 2021

   => Loading Basis Set <=

    Name: STO-3G
    Role: ORBITAL
    Keyword: BASIS
    atoms 1   entry CR         line   323 file /home/susi/dokumentit/tutkimus/linuxchemistry/suppinfo/psi4/transition_metals/sto-3g.gbs 
    atoms 2-3 entry O          line    79 file /home/susi/dokumentit/tutkimus/linuxchemistry/suppinfo/psi4/transition_metals/sto-3g.gbs 
    atoms 4-5 entry F          line    89 file /home/susi/dokumentit/tutkimus/linuxchemistry/suppinfo/psi4/transition_metals/sto-3g.gbs 


         ---------------------------------------------------------
                                   SCF
               by Justin Turney, Rob Parrish, Andy Simmonett
                          and Daniel G. A. Smith
                              RKS Reference
                        4 Threads,   7629 MiB Core
         ---------------------------------------------------------

  ==> Geometry <==

    Molecular point group: c1
    Full point group: C1

    Geometry (in Angstrom), charge = 0, multiplicity = 1:

       Center              X                  Y                   Z               Mass       
    ------------   -----------------  -----------------  -----------------  -----------------
         CR          -0.001029128779     0.068483699580    -0.015073079974    51.940506230000
         O            0.987831764991     0.775003037741    -0.893766137763    15.994914619570
         O           -1.015253424415     1.049931004936     0.492102579101    15.994914619570
         F           -0.729996792179    -1.098984735404    -0.837095508659    18.998403162730
         F            0.755896893717    -0.624672876405     1.216468325899    18.998403162730

  Running in c1 symmetry.

  Rotational constants: A =      0.15928  B =      0.15157  C =      0.13938 [cm^-1]
  Rotational constants: A =   4775.14966  B =   4543.84652  C =   4178.36362 [MHz]
  Nuclear repulsion =  368.465464954988306

  Charge       = 0
  Multiplicity = 1
  Electrons    = 58
  Nalpha       = 29
  Nbeta        = 29

  ==> Algorithm <==

  SCF Algorithm Type is DF.
  DIIS enabled.
  MOM disabled.
  Fractional occupation disabled.
  Guess Type is READ.
  Energy threshold   = 1.00e-08
  Density threshold  = 1.00e-08
  Integral threshold = 0.00e+00

  ==> Primary Basis <==

  Basis Set: STO-3G
    Blend: STO-3G
    Number of shells: 20
    Number of basis function: 38
    Number of Cartesian functions: 39
    Spherical Harmonics?: true
    Max angular momentum: 2

  ==> DFT Potential <==

   => Composite Functional: MY R2SCAN <= 

    Re-regularized SCAN exchange by Furness et al
    Re-regularized SCAN correlation by Furness et al
    J. W. Furness, A. D. Kaplan, J. Ning, J. P. Perdew, and J. Sun, J. Phys. Chem. Lett. 11, 8208 (2020)
    J. W. Furness, A. D. Kaplan, J. Ning, J. P. Perdew, and J. Sun, J. Phys. Chem. Lett. 11, 9248 (2020)

    Deriv               =              1
    GGA                 =           TRUE
    Meta                =           TRUE

    Exchange Hybrid     =          FALSE
    MP2 Hybrid          =          FALSE

   => Exchange Functionals <=

    1.0000   XC_mgga_x_r2scan

   => Correlation Functionals <=

    1.0000   XC_mgga_c_r2scan

   => Molecular Quadrature <=

    Radial Scheme          =       TREUTLER
    Pruning Scheme         =           FLAT
    Nuclear Scheme         =       TREUTLER

    BS radius alpha        =              1
    Pruning alpha          =              1
    Radial Points          =             75
    Spherical Points       =            302
    Total Points           =         109616
    Total Blocks           =            892
    Max Points             =            255
    Max Functions          =             36

   => Loading Basis Set <=

    Name: (STO-3G AUX)
    Role: JKFIT
    Keyword: DF_BASIS_SCF
    atoms 1   entry CR         line  1731 file /usr/share/psi4/basis/def2-svp-jkfit.gbs 
    atoms 2-3 entry O          line   323 file /usr/share/psi4/basis/def2-svp-jkfit.gbs 
    atoms 4-5 entry F          line   383 file /usr/share/psi4/basis/def2-svp-jkfit.gbs 

   => Loading Basis Set <=

    Name: STO-3G
    Role: ORBITAL
    Keyword: BASIS
    atoms 1   entry CR         line   323 file /home/susi/dokumentit/tutkimus/linuxchemistry/suppinfo/psi4/transition_metals/sto-3g.gbs 
    atoms 2-3 entry O          line    79 file /home/susi/dokumentit/tutkimus/linuxchemistry/suppinfo/psi4/transition_metals/sto-3g.gbs 
    atoms 4-5 entry F          line    89 file /home/susi/dokumentit/tutkimus/linuxchemistry/suppinfo/psi4/transition_metals/sto-3g.gbs 

  Reading orbitals from file 180, no projection.

  ==> Pre-Iterations <==

   -------------------------------------------------------
    Irrep   Nso     Nmo     Nalpha   Nbeta   Ndocc  Nsocc
   -------------------------------------------------------
     A         38      38       0       0       0       0
   -------------------------------------------------------
    Total      38      38      29      29      29       0
   -------------------------------------------------------

  ==> Integral Setup <==

  DFHelper Memory: AOs need 0.009 GiB; user supplied 5.356 GiB. Using in-core AOs.

  ==> MemDFJK: Density-Fitted J/K Matrices <==

    J tasked:                   Yes
    K tasked:                    No
    wK tasked:                   No
    OpenMP threads:               4
    Memory [MiB]:              5484
    Algorithm:                 Core
    Schwarz Cutoff:           1E-12
    Mask sparsity (%):       2.4931
    Fitting Condition:        1E-10

   => Auxiliary Basis Set <=

  Basis Set: (STO-3G AUX)
    Blend: DEF2-SVP-JKFIT
    Number of shells: 158
    Number of basis function: 572
    Number of Cartesian functions: 749
    Spherical Harmonics?: true
    Max angular momentum: 6

  Cached 100.0% of DFT collocation blocks in 0.232 [GiB].

  Minimum eigenvalue in the overlap matrix is 2.3904127819E-01.
  Using Symmetric Orthogonalization.

  SCF Guess: Orbitals guess was supplied from a previous computation.

  ==> Iterations <==

                           Total Energy        Delta E     RMS |[F,P]|

   @DF-RKS iter   0: -1378.91265973346799   -1.37891e+03   2.08249e-03 
   @DF-RKS iter   1: -1378.92372640934900   -1.10667e-02   8.68687e-04 DIIS
   @DF-RKS iter   2: -1378.91072613727692    1.30003e-02   4.87741e-03 DIIS
   @DF-RKS iter   3: -1378.92412256626744   -1.33964e-02   2.18906e-04 DIIS
   @DF-RKS iter   4: -1378.92416458246271   -4.20162e-05   3.56582e-05 DIIS
   @DF-RKS iter   5: -1378.92416567539976   -1.09294e-06   6.46988e-06 DIIS
   @DF-RKS iter   6: -1378.92416570021010   -2.48103e-08   1.07150e-06 DIIS
   @DF-RKS iter   7: -1378.92416570080150   -5.91399e-10   1.99541e-07 DIIS
   @DF-RKS iter   8: -1378.92416570081309   -1.15961e-11   1.31244e-07 DIIS
   @DF-RKS iter   9: -1378.92416570082423   -1.11413e-11   5.34822e-09 DIIS
  Energy and wave function converged.


  ==> Post-Iterations <==

    Orbital Energies [Eh]
    ---------------------

    Doubly Occupied:                                                      

       1A   -213.349506     2A    -24.432309     3A    -24.209542  
       4A    -24.209331     5A    -21.143769     6A    -21.142732  
       7A    -21.141312     8A    -18.658958     9A    -18.658639  
      10A     -2.997308    11A     -1.971786    12A     -1.969466  
      13A     -1.966820    14A     -1.067516    15A     -1.061471  
      16A     -0.821408    17A     -0.808628    18A     -0.333377  
      19A     -0.324413    20A     -0.316808    21A     -0.293258  
      22A     -0.284962    23A     -0.259650    24A     -0.257552  
      25A     -0.221175    26A     -0.193771    27A     -0.191936  
      28A     -0.184750    29A     -0.139471  

    Virtual:                                                              

      30A      0.027309    31A      0.051034    32A      0.104345  
      33A      0.131687    34A      0.147650    35A      0.294394  
      36A      0.486378    37A      0.539276    38A      0.559226  

    Final Occupation by Irrep:
              A 
    DOCC [    29 ]

  @DF-RKS Final Energy: -1378.92416570082423

   => Energetics <=

    Nuclear Repulsion Energy =            368.4654649549883061
    One-Electron Energy =               -2634.3871308448815398
    Two-Electron Energy =                 973.6439814983878023
    DFT Exchange-Correlation Energy =     -86.6464813093188155
    Empirical Dispersion Energy =           0.0000000000000000
    VV10 Nonlocal Energy =                  0.0000000000000000
    Total Energy =                      -1378.9241657008242328

Computation Completed


Properties will be evaluated at   0.000000,   0.000000,   0.000000 [a0]

Properties computed using the SCF density matrix

  Nuclear Dipole Moment: [e a0]
     X:    -0.0207      Y:     1.3798      Z:    -0.3037

  Electronic Dipole Moment: [e a0]
     X:     0.0287      Y:    -1.9081      Z:     0.4200

  Dipole Moment: [e a0]
     X:     0.0079      Y:    -0.5283      Z:     0.1163     Total:     0.5410

  Dipole Moment: [D]
     X:     0.0202      Y:    -1.3428      Z:     0.2956     Total:     1.3751


*** tstop() called on thinkpad at Sat Jul 10 15:17:03 2021
Module time:
	user time   =       7.25 seconds =       0.12 minutes
	system time =       0.03 seconds =       0.00 minutes
	total time  =          3 seconds =       0.05 minutes
Total time:
	user time   =      44.04 seconds =       0.73 minutes
	system time =       0.27 seconds =       0.00 minutes
	total time  =         19 seconds =       0.32 minutes

*** tstart() called on thinkpad
*** at Sat Jul 10 15:17:03 2021


         ------------------------------------------------------------
                                   SCF GRAD                          
                          Rob Parrish, Justin Turney,                
                       Andy Simmonett, and Alex Sokolov              
         ------------------------------------------------------------

  ==> Geometry <==

    Molecular point group: c1
    Full point group: C1

    Geometry (in Angstrom), charge = 0, multiplicity = 1:

       Center              X                  Y                   Z               Mass       
    ------------   -----------------  -----------------  -----------------  -----------------
         CR          -0.001029128779     0.068483699580    -0.015073079974    51.940506230000
         O            0.987831764991     0.775003037741    -0.893766137763    15.994914619570
         O           -1.015253424415     1.049931004936     0.492102579101    15.994914619570
         F           -0.729996792179    -1.098984735404    -0.837095508659    18.998403162730
         F            0.755896893717    -0.624672876405     1.216468325899    18.998403162730

  Nuclear repulsion =  368.465464954988306

  ==> Basis Set <==

  Basis Set: STO-3G
    Blend: STO-3G
    Number of shells: 20
    Number of basis function: 38
    Number of Cartesian functions: 39
    Spherical Harmonics?: true
    Max angular momentum: 2

  ==> DFJKGrad: Density-Fitted SCF Gradients <==

    Gradient:                    1
    J tasked:                  Yes
    K tasked:                   No
    wK tasked:                  No
    OpenMP threads:              4
    Integrals threads:           4
    Memory [MiB]:             5722
    Schwarz Cutoff:          0E+00
    Fitting Condition:       1E-10

   => Auxiliary Basis Set <=

  Basis Set: (STO-3G AUX)
    Blend: DEF2-SVP-JKFIT
    Number of shells: 158
    Number of basis function: 572
    Number of Cartesian functions: 749
    Spherical Harmonics?: true
    Max angular momentum: 6

  ==> DFT Potential <==

   => Composite Functional: MY R2SCAN <= 

    Re-regularized SCAN exchange by Furness et al
    Re-regularized SCAN correlation by Furness et al
    J. W. Furness, A. D. Kaplan, J. Ning, J. P. Perdew, and J. Sun, J. Phys. Chem. Lett. 11, 8208 (2020)
    J. W. Furness, A. D. Kaplan, J. Ning, J. P. Perdew, and J. Sun, J. Phys. Chem. Lett. 11, 9248 (2020)

    Deriv               =              1
    GGA                 =           TRUE
    Meta                =           TRUE

    Exchange Hybrid     =          FALSE
    MP2 Hybrid          =          FALSE

   => Exchange Functionals <=

    1.0000   XC_mgga_x_r2scan

   => Correlation Functionals <=

    1.0000   XC_mgga_c_r2scan

   => Molecular Quadrature <=

    Radial Scheme          =       TREUTLER
    Pruning Scheme         =           FLAT
    Nuclear Scheme         =       TREUTLER

    BS radius alpha        =              1
    Pruning alpha          =              1
    Radial Points          =             75
    Spherical Points       =            302
    Total Points           =         109616
    Total Blocks           =            892
    Max Points             =            255
    Max Functions          =             36


  -Total Gradient:
     Atom            X                  Y                   Z
    ------   -----------------  -----------------  -----------------
       1        0.000119959676    -0.007985331440     0.001757563984
       2        0.002849113531     0.001945274276    -0.002510819862
       3       -0.002919475075     0.002737059467     0.001480259838
       4       -0.000467754570    -0.002123723796    -0.000254805996
       5        0.000526841144    -0.001806228837     0.001119751639


*** tstop() called on thinkpad at Sat Jul 10 15:17:04 2021
Module time:
	user time   =       2.52 seconds =       0.04 minutes
	system time =       0.01 seconds =       0.00 minutes
	total time  =          1 seconds =       0.02 minutes
Total time:
	user time   =      46.56 seconds =       0.78 minutes
	system time =       0.28 seconds =       0.00 minutes
	total time  =         20 seconds =       0.33 minutes

			-----------------------------------------
			 OPTKING 2.0: for geometry optimizations 
			  - R.A. King,  Bethel University        
			-----------------------------------------

	Previous internal coordinate definitions found.
	---Fragment 1 Geometry and Gradient---
	 CR         -0.0019447715        0.1294154363       -0.0284839930
	 O           1.8667314939        1.4645434877       -1.6889732206
	 O          -1.9185509201        1.9840820500        0.9299391001
	 F          -1.3794940097       -2.0767801660       -1.5818812522
	 F           1.4284381082       -1.1804606544        2.2987919762
	             0.0001199597       -0.0079853314        0.0017575640
	             0.0028491135        0.0019452743       -0.0025108199
	            -0.0029194751        0.0027370595        0.0014802598
	            -0.0004677546       -0.0021237238       -0.0002548060
	             0.0005268411       -0.0018062288        0.0011197516

	---Fragment 1 Intrafragment Coordinates---
	 - Coordinate -           - BOHR/RAD -       - ANG/DEG -
	 R(1,2)           =         2.834033	       1.499706
	 R(1,3)           =         2.834033	       1.499706
	 R(1,4)           =         3.029519	       1.603152
	 R(1,5)           =         3.029519	       1.603152
	 B(2,1,3)         =         1.913210	     109.618854
	 B(2,1,4)         =         1.920339	     110.027318
	 B(2,1,5)         =         1.920339	     110.027308
	 B(3,1,4)         =         1.920339	     110.027332
	 B(3,1,5)         =         1.920339	     110.027327
	 B(4,1,5)         =         1.868913	     107.080842

	Current energy   :     -1378.9241657008

	Energy change for the previous step:
		Projected    :        -0.0009822625
		Actual       :        -0.0003954410

	Performing BFGS update.
	Previous computed or guess Hessian on step 1.
	Steps to be used in Hessian update: 3 2
	Taking RFO optimization step.
	Going to follow RFO solution 1.
	Using RFO vector 1.
	Norm of target step-size    0.01235
	Projected energy change by RFO approximation:        -0.0000933547

	Back-transformation to cartesian coordinates...
	Successfully converged to displaced geometry.

	--- Internal Coordinate Step in ANG or DEG, aJ/ANG or AJ/DEG ---
	 ---------------------------------------------------------------------------
	   Coordinate                Previous        Force       Change         New 
	   ----------                --------       ------       ------       ------
	    1 R(1,2)          =      1.499706    -0.042181    -0.002176     1.497530
	    2 R(1,3)          =      1.499706    -0.042181    -0.002176     1.497530
	    3 R(1,4)          =      1.603152    -0.008318    -0.001922     1.601231
	    4 R(1,5)          =      1.603152    -0.008318    -0.001922     1.601231
	    5 B(2,1,3)        =    109.618854     0.000205     0.493455   110.112309
	    6 B(2,1,4)        =    110.027318    -0.000039    -0.083679   109.943638
	    7 B(2,1,5)        =    110.027308    -0.000039    -0.083673   109.943635
	    8 B(3,1,4)        =    110.027332    -0.000039    -0.083699   109.943633
	    9 B(3,1,5)        =    110.027327    -0.000039    -0.083699   109.943628
	   10 B(4,1,5)        =    107.080842    -0.000058    -0.179655   106.901187
	 ---------------------------------------------------------------------------
	Successfully symmetrized geometry.

  ==> Convergence Check <==

  Measures of convergence in internal coordinates in au.
  Criteria marked as inactive (o), active & met (*), and active & unmet ( ).
  ---------------------------------------------------------------------------------------------
   Step     Total Energy     Delta E     MAX Force     RMS Force      MAX Disp      RMS Disp   
  ---------------------------------------------------------------------------------------------
    Convergence Criteria             o    2.00e-06 *    1.00e-06 *    6.00e-06 *    4.00e-06 *
  ---------------------------------------------------------------------------------------------
      4   -1378.92416570   -3.95e-04 o    5.12e-03      2.52e-03      8.61e-03      3.91e-03    ~
  ---------------------------------------------------------------------------------------------

	Writing optimization data to binary file.
	Structure for next step:
	Cartesian Geometry (in Angstrom)
	   CR    -0.0010724814   0.0713773601  -0.0157100328
	    O     0.9894585739   0.7713019860  -0.8940884695
	    O    -1.0167754353   1.0466618859   0.4939589297
	    F    -0.7282765085  -1.0963875293  -0.8351241241
	    F     0.7541151646  -0.6231935728   1.2135998755
			--------------------------
			 OPTKING Finished Execution 
			--------------------------

    Structure for next step:
    Molecular point group: c1
    Full point group: C1

    Geometry (in Angstrom), charge = 0, multiplicity = 1:

    CR          -0.001058186939     0.070423855841    -0.015500153685
    O            0.989472872238     0.770348484517    -0.893878593764
    O           -1.016761144755     1.045708385480     0.494168810872
    F           -0.728262216826    -1.097341038104    -0.834914248221
    F            0.754129462096    -0.624147079755     1.213809759457

gradient() will perform analytic gradient computation.

*** tstart() called on thinkpad
*** at Sat Jul 10 15:17:04 2021

   => Loading Basis Set <=

    Name: STO-3G
    Role: ORBITAL
    Keyword: BASIS
    atoms 1   entry CR         line   323 file /home/susi/dokumentit/tutkimus/linuxchemistry/suppinfo/psi4/transition_metals/sto-3g.gbs 
    atoms 2-3 entry O          line    79 file /home/susi/dokumentit/tutkimus/linuxchemistry/suppinfo/psi4/transition_metals/sto-3g.gbs 
    atoms 4-5 entry F          line    89 file /home/susi/dokumentit/tutkimus/linuxchemistry/suppinfo/psi4/transition_metals/sto-3g.gbs 


         ---------------------------------------------------------
                                   SCF
               by Justin Turney, Rob Parrish, Andy Simmonett
                          and Daniel G. A. Smith
                              RKS Reference
                        4 Threads,   7629 MiB Core
         ---------------------------------------------------------

  ==> Geometry <==

    Molecular point group: c1
    Full point group: C1

    Geometry (in Angstrom), charge = 0, multiplicity = 1:

       Center              X                  Y                   Z               Mass       
    ------------   -----------------  -----------------  -----------------  -----------------
         CR          -0.001058186939     0.070423855841    -0.015500153685    51.940506230000
[...]
                              RKS Reference
                        4 Threads,   7629 MiB Core
         ---------------------------------------------------------

  ==> Geometry <==

    Molecular point group: c1
    Full point group: C1

    Geometry (in Angstrom), charge = 0, multiplicity = 1:

       Center              X                  Y                   Z               Mass       
    ------------   -----------------  -----------------  -----------------  -----------------
         CR          -0.001055344309     0.070233298874    -0.015458176101    51.940506230000
         O            0.988316208705     0.771357111507    -0.893274655354    15.994914619570
         O           -1.015630117473     1.046403104282     0.493189926152    15.994914619570
         F           -0.729044478143    -1.098049468240    -0.835904442846    18.998403162730
         F            0.754925535205    -0.624351739263     1.215000860296    18.998403162730

  Running in c1 symmetry.

  Rotational constants: A =      0.15960  B =      0.15173  C =      0.13985 [cm^-1]
  Rotational constants: A =   4784.54122  B =   4548.84134  C =   4192.66336 [MHz]
  Nuclear repulsion =  368.871850837061061

  Charge       = 0
  Multiplicity = 1
  Electrons    = 58
  Nalpha       = 29
  Nbeta        = 29

  ==> Algorithm <==

  SCF Algorithm Type is DF.
  DIIS enabled.
  MOM disabled.
  Fractional occupation disabled.
  Guess Type is READ.
  Energy threshold   = 1.00e-08
  Density threshold  = 1.00e-08
  Integral threshold = 0.00e+00

  ==> Primary Basis <==

  Basis Set: STO-3G
    Blend: STO-3G
    Number of shells: 20
    Number of basis function: 38
    Number of Cartesian functions: 39
    Spherical Harmonics?: true
    Max angular momentum: 2

  ==> DFT Potential <==

   => Composite Functional: MY R2SCAN <= 

    Re-regularized SCAN exchange by Furness et al
    Re-regularized SCAN correlation by Furness et al
    J. W. Furness, A. D. Kaplan, J. Ning, J. P. Perdew, and J. Sun, J. Phys. Chem. Lett. 11, 8208 (2020)
    J. W. Furness, A. D. Kaplan, J. Ning, J. P. Perdew, and J. Sun, J. Phys. Chem. Lett. 11, 9248 (2020)

    Deriv               =              1
    GGA                 =           TRUE
    Meta                =           TRUE

    Exchange Hybrid     =          FALSE
    MP2 Hybrid          =          FALSE

   => Exchange Functionals <=

    1.0000   XC_mgga_x_r2scan

   => Correlation Functionals <=

    1.0000   XC_mgga_c_r2scan

   => Molecular Quadrature <=

    Radial Scheme          =       TREUTLER
    Pruning Scheme         =           FLAT
    Nuclear Scheme         =       TREUTLER

    BS radius alpha        =              1
    Pruning alpha          =              1
    Radial Points          =             75
    Spherical Points       =            302
    Total Points           =         109620
    Total Blocks           =            893
    Max Points             =            256
    Max Functions          =             35

   => Loading Basis Set <=

    Name: (STO-3G AUX)
    Role: JKFIT
    Keyword: DF_BASIS_SCF
    atoms 1   entry CR         line  1731 file /usr/share/psi4/basis/def2-svp-jkfit.gbs 
    atoms 2-3 entry O          line   323 file /usr/share/psi4/basis/def2-svp-jkfit.gbs 
    atoms 4-5 entry F          line   383 file /usr/share/psi4/basis/def2-svp-jkfit.gbs 

   => Loading Basis Set <=

    Name: STO-3G
    Role: ORBITAL
    Keyword: BASIS
    atoms 1   entry CR         line   323 file /home/susi/dokumentit/tutkimus/linuxchemistry/suppinfo/psi4/transition_metals/sto-3g.gbs 
    atoms 2-3 entry O          line    79 file /home/susi/dokumentit/tutkimus/linuxchemistry/suppinfo/psi4/transition_metals/sto-3g.gbs 
    atoms 4-5 entry F          line    89 file /home/susi/dokumentit/tutkimus/linuxchemistry/suppinfo/psi4/transition_metals/sto-3g.gbs 

  Reading orbitals from file 180, no projection.

  ==> Pre-Iterations <==

   -------------------------------------------------------
    Irrep   Nso     Nmo     Nalpha   Nbeta   Ndocc  Nsocc
   -------------------------------------------------------
     A         38      38       0       0       0       0
   -------------------------------------------------------
    Total      38      38      29      29      29       0
   -------------------------------------------------------

  ==> Integral Setup <==

  DFHelper Memory: AOs need 0.009 GiB; user supplied 5.356 GiB. Using in-core AOs.

  ==> MemDFJK: Density-Fitted J/K Matrices <==

    J tasked:                   Yes
    K tasked:                    No
    wK tasked:                   No
    OpenMP threads:               4
    Memory [MiB]:              5484
    Algorithm:                 Core
    Schwarz Cutoff:           1E-12
    Mask sparsity (%):       2.4931
    Fitting Condition:        1E-10

   => Auxiliary Basis Set <=

  Basis Set: (STO-3G AUX)
    Blend: DEF2-SVP-JKFIT
    Number of shells: 158
    Number of basis function: 572
    Number of Cartesian functions: 749
    Spherical Harmonics?: true
    Max angular momentum: 6

  Cached 100.0% of DFT collocation blocks in 0.232 [GiB].

  Minimum eigenvalue in the overlap matrix is 2.3908983107E-01.
  Using Symmetric Orthogonalization.

  SCF Guess: Orbitals guess was supplied from a previous computation.

  ==> Iterations <==

                           Total Energy        Delta E     RMS |[F,P]|

   @DF-RKS iter   0: -1378.92421451522091   -1.37892e+03   1.94982e-07 
   @DF-RKS iter   1: -1378.92421494703649   -4.31816e-07   1.43715e-08 DIIS
   @DF-RKS iter   2: -1378.92421494703513    1.36424e-12   8.35243e-08 DIIS
   @DF-RKS iter   3: -1378.92421494703785   -2.72848e-12   2.01822e-09 DIIS
  Energy and wave function converged.


  ==> Post-Iterations <==

    Orbital Energies [Eh]
    ---------------------

    Doubly Occupied:                                                      

       1A   -213.348946     2A    -24.431938     3A    -24.209453  
       4A    -24.209237     5A    -21.143386     6A    -21.142333  
       7A    -21.140933     8A    -18.659516     9A    -18.659206  
      10A     -2.997349    11A     -1.971863    12A     -1.969945  
      13A     -1.966733    14A     -1.067436    15A     -1.061423  
      16A     -0.821971    17A     -0.808864    18A     -0.333575  
      19A     -0.324757    20A     -0.317560    21A     -0.293562  
      22A     -0.285643    23A     -0.260285    24A     -0.257655  
      25A     -0.221138    26A     -0.193848    27A     -0.192238  
      28A     -0.185367    29A     -0.139942  

    Virtual:                                                              

      30A      0.027482    31A      0.052013    32A      0.104922  
      33A      0.132938    34A      0.148763    35A      0.295808  
      36A      0.486644    37A      0.538949    38A      0.561393  

    Final Occupation by Irrep:
              A 
    DOCC [    29 ]

  @DF-RKS Final Energy: -1378.92421494703785

   => Energetics <=

    Nuclear Repulsion Energy =            368.8718508370610607
    One-Electron Energy =               -2635.1888667723565050
    Two-Electron Energy =                 974.0429778798616098
    DFT Exchange-Correlation Energy =     -86.6501768916042323
    Empirical Dispersion Energy =           0.0000000000000000
    VV10 Nonlocal Energy =                  0.0000000000000000
    Total Energy =                      -1378.9242149470378536

Computation Completed


Properties will be evaluated at   0.000000,   0.000000,   0.000000 [a0]

Properties computed using the SCF density matrix

  Nuclear Dipole Moment: [e a0]
     X:    -0.0206      Y:     1.3721      Z:    -0.3020

  Electronic Dipole Moment: [e a0]
     X:     0.0285      Y:    -1.8940      Z:     0.4169

  Dipole Moment: [e a0]
     X:     0.0078      Y:    -0.5219      Z:     0.1149     Total:     0.5344

  Dipole Moment: [D]
     X:     0.0199      Y:    -1.3265      Z:     0.2920     Total:     1.3584


*** tstop() called on thinkpad at Sat Jul 10 15:17:26 2021
Module time:
	user time   =       4.08 seconds =       0.07 minutes
	system time =       0.01 seconds =       0.00 minutes
	total time  =          2 seconds =       0.03 minutes
Total time:
	user time   =      93.74 seconds =       1.56 minutes
	system time =       0.46 seconds =       0.01 minutes
	total time  =         42 seconds =       0.70 minutes

*** tstart() called on thinkpad
*** at Sat Jul 10 15:17:26 2021


         ------------------------------------------------------------
                                   SCF GRAD                          
                          Rob Parrish, Justin Turney,                
                       Andy Simmonett, and Alex Sokolov              
         ------------------------------------------------------------

  ==> Geometry <==

    Molecular point group: c1
    Full point group: C1

    Geometry (in Angstrom), charge = 0, multiplicity = 1:

       Center              X                  Y                   Z               Mass       
    ------------   -----------------  -----------------  -----------------  -----------------
         CR          -0.001055344309     0.070233298874    -0.015458176101    51.940506230000
         O            0.988316208705     0.771357111507    -0.893274655354    15.994914619570
         O           -1.015630117473     1.046403104282     0.493189926152    15.994914619570
         F           -0.729044478143    -1.098049468240    -0.835904442846    18.998403162730
         F            0.754925535205    -0.624351739263     1.215000860296    18.998403162730

  Nuclear repulsion =  368.871850837061061

  ==> Basis Set <==

  Basis Set: STO-3G
    Blend: STO-3G
    Number of shells: 20
    Number of basis function: 38
    Number of Cartesian functions: 39
    Spherical Harmonics?: true
    Max angular momentum: 2

  ==> DFJKGrad: Density-Fitted SCF Gradients <==

    Gradient:                    1
    J tasked:                  Yes
    K tasked:                   No
    wK tasked:                  No
    OpenMP threads:              4
    Integrals threads:           4
    Memory [MiB]:             5722
    Schwarz Cutoff:          0E+00
    Fitting Condition:       1E-10

   => Auxiliary Basis Set <=

  Basis Set: (STO-3G AUX)
    Blend: DEF2-SVP-JKFIT
    Number of shells: 158
    Number of basis function: 572
    Number of Cartesian functions: 749
    Spherical Harmonics?: true
    Max angular momentum: 6

  ==> DFT Potential <==

   => Composite Functional: MY R2SCAN <= 

    Re-regularized SCAN exchange by Furness et al
    Re-regularized SCAN correlation by Furness et al
    J. W. Furness, A. D. Kaplan, J. Ning, J. P. Perdew, and J. Sun, J. Phys. Chem. Lett. 11, 8208 (2020)
    J. W. Furness, A. D. Kaplan, J. Ning, J. P. Perdew, and J. Sun, J. Phys. Chem. Lett. 11, 9248 (2020)

    Deriv               =              1
    GGA                 =           TRUE
    Meta                =           TRUE

    Exchange Hybrid     =          FALSE
    MP2 Hybrid          =          FALSE

   => Exchange Functionals <=

    1.0000   XC_mgga_x_r2scan

   => Correlation Functionals <=

    1.0000   XC_mgga_c_r2scan

   => Molecular Quadrature <=

    Radial Scheme          =       TREUTLER
    Pruning Scheme         =           FLAT
    Nuclear Scheme         =       TREUTLER

    BS radius alpha        =              1
    Pruning alpha          =              1
    Radial Points          =             75
    Spherical Points       =            302
    Total Points           =         109620
    Total Blocks           =            893
    Max Points             =            256
    Max Functions          =             35


  -Total Gradient:
     Atom            X                  Y                   Z
    ------   -----------------  -----------------  -----------------
       1        0.000021429388    -0.001432021545     0.000315189556
       2        0.000021445512    -0.001432261514     0.000315298226
       3        0.000021660980    -0.001432339062     0.000315158029
       4        0.000021517054    -0.001431975712     0.000315173867
       5        0.000021541261    -0.001431995745     0.000315210805


*** tstop() called on thinkpad at Sat Jul 10 15:17:28 2021
Module time:
	user time   =       2.49 seconds =       0.04 minutes
	system time =       0.01 seconds =       0.00 minutes
	total time  =          2 seconds =       0.03 minutes
Total time:
	user time   =      96.23 seconds =       1.60 minutes
	system time =       0.47 seconds =       0.01 minutes
	total time  =         44 seconds =       0.73 minutes

			-----------------------------------------
			 OPTKING 2.0: for geometry optimizations 
			  - R.A. King,  Bethel University        
			-----------------------------------------

	Previous internal coordinate definitions found.
	---Fragment 1 Geometry and Gradient---
	 CR         -0.0019943117        0.1327216998       -0.0292117192
	 O           1.8676469598        1.4576536857       -1.6880444534
	 O          -1.9192627668        1.9774152839        0.9319938883
	 F          -1.3776943970       -2.0750127672       -1.5796304640
	 F           1.4266025067       -1.1798537932        2.2960188682
	             0.0000214294       -0.0014320215        0.0003151896
	             0.0000214455       -0.0014322615        0.0003152982
	             0.0000216610       -0.0014323391        0.0003151580
	             0.0000215171       -0.0014319757        0.0003151739
	             0.0000215413       -0.0014319957        0.0003152108

	---Fragment 1 Intrafragment Coordinates---
	 - Coordinate -           - BOHR/RAD -       - ANG/DEG -
	 R(1,2)           =         2.828910	       1.496994
	 R(1,3)           =         2.828910	       1.496994
	 R(1,4)           =         3.028274	       1.602493
	 R(1,5)           =         3.028274	       1.602493
	 B(2,1,3)         =         1.919582	     109.983966
	 B(2,1,4)         =         1.919277	     109.966482
	 B(2,1,5)         =         1.919277	     109.966482
	 B(3,1,4)         =         1.919277	     109.966484
	 B(3,1,5)         =         1.919277	     109.966484
	 B(4,1,5)         =         1.866523	     106.943863

	Current energy   :     -1378.9242149470

	Energy change for the previous step:
		Projected    :        -0.0000000000
		Actual       :         0.0000000334

	Performing BFGS update.
	Previous computed or guess Hessian on step 1.
	Denominators (dg)(dq) or (dq)(dq) are very small.
	 Skipping Hessian update for step 9.
	Denominators (dg)(dq) or (dq)(dq) are very small.
	 Skipping Hessian update for step 8.
	Steps to be used in Hessian update: 7 6
	Taking RFO optimization step.
	Going to follow RFO solution 1.
	Using RFO vector 1.
	Norm of target step-size    0.00000
	Projected energy change by RFO approximation:        -0.0000000000

	Back-transformation to cartesian coordinates...
	Successfully converged to displaced geometry.

	--- Internal Coordinate Step in ANG or DEG, aJ/ANG or AJ/DEG ---
	 ---------------------------------------------------------------------------
	   Coordinate                Previous        Force       Change         New 
	   ----------                --------       ------       ------       ------
	    1 R(1,2)          =      1.496994     0.000001     0.000000     1.496995
	    2 R(1,3)          =      1.496994     0.000002     0.000000     1.496995
	    3 R(1,4)          =      1.602493     0.000001     0.000000     1.602493
	    4 R(1,5)          =      1.602493     0.000000     0.000000     1.602493
	    5 B(2,1,3)        =    109.983966    -0.000000    -0.000015   109.983952
	    6 B(2,1,4)        =    109.966482     0.000000     0.000020   109.966502
	    7 B(2,1,5)        =    109.966482     0.000000     0.000023   109.966505
	    8 B(3,1,4)        =    109.966484     0.000000     0.000019   109.966503
	    9 B(3,1,5)        =    109.966484     0.000000     0.000021   109.966505
	   10 B(4,1,5)        =    106.943863    -0.000000    -0.000068   106.943795
	 ---------------------------------------------------------------------------
	Successfully symmetrized geometry.

  ==> Convergence Check <==

  Measures of convergence in internal coordinates in au.
  Criteria marked as inactive (o), active & met (*), and active & unmet ( ).
  ---------------------------------------------------------------------------------------------
   Step     Total Energy     Delta E     MAX Force     RMS Force      MAX Disp      RMS Disp   
  ---------------------------------------------------------------------------------------------
    Convergence Criteria             o    2.00e-06 *    1.00e-06 *    6.00e-06 *    4.00e-06 *
  ---------------------------------------------------------------------------------------------
     10   -1378.92421495    3.34e-08 o    2.66e-07 *    1.49e-07 *    1.19e-06 *    4.58e-07 *  ~
  ---------------------------------------------------------------------------------------------


  **** Optimization is complete! (in 10 steps) ****

  ==> Optimization Summary <==

  Measures of convergence in internal coordinates in au.
  --------------------------------------------------------------------------------------------------------------- ~
   Step         Total Energy             Delta E       MAX Force       RMS Force        MAX Disp        RMS Disp  ~
  --------------------------------------------------------------------------------------------------------------- ~
      1   -1378.904165936920  -1378.904165936920      0.08747600      0.04832355      0.04608652      0.03129249  ~
      2   -1378.915048971406     -0.010883034486      0.06223104      0.03396383      0.10346996      0.06000563  ~
      3   -1378.923770259812     -0.008721288406      0.01257480      0.00785133      0.03297022      0.01740932  ~
      4   -1378.924165700824     -0.000395441012      0.00511991      0.00251662      0.00861241      0.00390803  ~
      5   -1378.924215875644     -0.000050174820      0.00120749      0.00068868      0.00228646      0.00104536  ~
      6   -1378.924221194658     -0.000005319013      0.00067513      0.00038040      0.00081507      0.00048542  ~
      7   -1378.924217016762      0.000004177896      0.00011261      0.00006782      0.00023923      0.00015056  ~
      8   -1378.924215190618      0.000001826144      0.00001103      0.00000451      0.00004609      0.00001686  ~
      9   -1378.924214980396      0.000000210221      0.00000174      0.00000078      0.00000729      0.00000268  ~
     10   -1378.924214947038      0.000000033358      0.00000027      0.00000015      0.00000119      0.00000046  ~
  --------------------------------------------------------------------------------------------------------------- ~

	Writing optimization data to binary file.
	Final energy is  -1378.9242149470379
	Final (previous) structure:
	Cartesian Geometry (in Angstrom)
	   CR    -0.0010553443   0.0702332986  -0.0154581760
	    O     0.9883162048   0.7713571085  -0.8932746518
	    O    -1.0156301135   1.0464031002   0.4931899242
	    F    -0.7290444753  -1.0980494639  -0.8359044396
	    F     0.7549255322  -0.6243517368   1.2150008555
	Saving final (previous) structure.
			--------------------------
			 OPTKING Finished Execution 
			--------------------------

    Final optimized geometry and variables:
    Molecular point group: c1
    Full point group: C1

    Geometry (in Angstrom), charge = 0, multiplicity = 1:

    CR          -0.001055344309     0.070233298874    -0.015458176101
    O            0.988316208705     0.771357111507    -0.893274655354
    O           -1.015630117473     1.046403104282     0.493189926152
    F           -0.729044478143    -1.098049468240    -0.835904442846
    F            0.754925535205    -0.624351739263     1.215000860296

	Removing binary optimization data file.
	Cleaning optimization helper files.

    Psi4 stopped on: Saturday, 10 July 2021 03:17PM
    Psi4 wall time for execution: 0:00:44.08

*** Psi4 exiting successfully. Buy a developer a beer!
