
    -----------------------------------------------------------------------
          Psi4: An Open-Source Ab Initio Electronic Structure Package
                               Psi4 1.3.2 release

                         Git: Rev {} zzzzzzz 


    R. M. Parrish, L. A. Burns, D. G. A. Smith, A. C. Simmonett,
    A. E. DePrince III, E. G. Hohenstein, U. Bozkaya, A. Yu. Sokolov,
    R. Di Remigio, R. M. Richard, J. F. Gonthier, A. M. James,
    H. R. McAlexander, A. Kumar, M. Saitow, X. Wang, B. P. Pritchard,
    P. Verma, H. F. Schaefer III, K. Patkowski, R. A. King, E. F. Valeev,
    F. A. Evangelista, J. M. Turney, T. D. Crawford, and C. D. Sherrill,
    J. Chem. Theory Comput. 13(7) pp 3185--3197 (2017).
    (doi: 10.1021/acs.jctc.7b00174)


                         Additional Contributions by
    P. Kraus, H. Kruse, M. H. Lechner, M. C. Schieber, R. A. Shaw,
    A. Alenaizan, R. Galvelis, Z. L. Glick, S. Lehtola, and J. P. Misiewicz

    -----------------------------------------------------------------------


    Psi4 started on: Saturday, 10 July 2021 02:56PM

    Process ID: 1684059
    Host:       thinkpad
    PSIDATADIR: /usr/share/psi4
    Memory:     500.0 MiB
    Threads:    4
    
  ==> Input File <==

--------------------------------------------------------------------------
memory 8 gb

molecule {
symmetry c1
Cr        0.48028725377749    0.32716919378518    0.12128381663197
O         1.51332165941332    1.03448648135578   -0.78955553051410
O        -0.57831537187616    1.32157128739802    0.65757817076212
F        -0.29602430869141   -0.85637252313759   -0.76598418135575
F         1.28459076737678   -0.35182443940140    1.41848772447575
}

set basis def2-SVP
set geom_maxiter 250

# Use a (75,302) quadrature grid
set dft_radial_points 75
set dft_spherical_points 302

# Very tight geometry optimization
set g_convergence gau_verytight
# Increase allowed number of geometry optimization steps
set geom_maxiter 250

# Use the Hueckel type guess
set guess huckel

my_dft = {
    "name": "my lda",
    "x_functionals": {"lda_x": {}},
    "c_functionals": {"lda_c_pw": {}}
}
optimize('scf', dft_functional=my_dft)
--------------------------------------------------------------------------

  Memory set to   7.451 GiB by Python driver.
gradient() will perform analytic gradient computation.

*** tstart() called on thinkpad
*** at Sat Jul 10 14:56:57 2021

   => Loading Basis Set <=

    Name: DEF2-SVP
    Role: ORBITAL
    Keyword: BASIS
    atoms 1   entry CR         line   614 file /usr/share/psi4/basis/def2-svp.gbs 
    atoms 2-3 entry O          line   130 file /usr/share/psi4/basis/def2-svp.gbs 
    atoms 4-5 entry F          line   150 file /usr/share/psi4/basis/def2-svp.gbs 


         ---------------------------------------------------------
                                   SCF
               by Justin Turney, Rob Parrish, Andy Simmonett
                          and Daniel G. A. Smith
                              RKS Reference
                        4 Threads,   7629 MiB Core
         ---------------------------------------------------------

  ==> Geometry <==

    Molecular point group: c1
    Full point group: C1

    Geometry (in Angstrom), charge = 0, multiplicity = 1:

       Center              X                  Y                   Z               Mass       
    ------------   -----------------  -----------------  -----------------  -----------------
         CR          -0.001007494106     0.066977222278    -0.014740872913    51.940506230000
         O            1.032026911530     0.774294509849    -0.925580220059    15.994914619570
         O           -1.059610119760     1.061379315891     0.521553481217    15.994914619570
         F           -0.777319056575    -1.116564494645    -0.902008870901    18.998403162730
         F            0.803296019493    -0.612016410908     1.282463034931    18.998403162730

  Running in c1 symmetry.

  Rotational constants: A =      0.15233  B =      0.13609  C =      0.12992 [cm^-1]
  Rotational constants: A =   4566.71939  B =   4079.72696  C =   3895.02954 [MHz]
  Nuclear repulsion =  355.181605515257786

  Charge       = 0
  Multiplicity = 1
  Electrons    = 58
  Nalpha       = 29
  Nbeta        = 29

  ==> Algorithm <==

  SCF Algorithm Type is DF.
  DIIS enabled.
  MOM disabled.
  Fractional occupation disabled.
  Guess Type is HUCKEL.
  Energy threshold   = 1.00e-08
  Density threshold  = 1.00e-08
  Integral threshold = 0.00e+00

  ==> Primary Basis <==

  Basis Set: DEF2-SVP
    Blend: DEF2-SVP
    Number of shells: 35
    Number of basis function: 87
    Number of Cartesian functions: 96
    Spherical Harmonics?: true
    Max angular momentum: 3

  ==> DFT Potential <==

   => Composite Functional: MY LDA <= 

    Slater exchange
    Perdew & Wang
    P. A. M. Dirac, Math. Proc. Cambridge Philos. Soc. 26, 376 (1930)
    F. Bloch, Z. Phys. 57, 545 (1929)
    J. P. Perdew and Y. Wang, Phys. Rev. B 45, 13244 (1992)

    Deriv               =              1
    GGA                 =          FALSE
    Meta                =          FALSE

    Exchange Hybrid     =          FALSE
    MP2 Hybrid          =          FALSE

   => Exchange Functionals <=

    1.0000         XC_lda_x

   => Correlation Functionals <=

    1.0000      XC_lda_c_pw

   => Molecular Quadrature <=

    Radial Scheme          =       TREUTLER
    Pruning Scheme         =           FLAT
    Nuclear Scheme         =       TREUTLER

    BS radius alpha        =              1
    Pruning alpha          =              1
    Radial Points          =             75
    Spherical Points       =            302
    Total Points           =         113250
    Total Blocks           =            920
    Max Points             =            256
    Max Functions          =             84

   => Loading Basis Set <=

    Name: (DEF2-SVP AUX)
    Role: JKFIT
    Keyword: DF_BASIS_SCF
    atoms 1   entry CR         line  1731 file /usr/share/psi4/basis/def2-svp-jkfit.gbs 
    atoms 2-3 entry O          line   323 file /usr/share/psi4/basis/def2-svp-jkfit.gbs 
    atoms 4-5 entry F          line   383 file /usr/share/psi4/basis/def2-svp-jkfit.gbs 

  ==> Pre-Iterations <==

   -------------------------------------------------------
    Irrep   Nso     Nmo     Nalpha   Nbeta   Ndocc  Nsocc
   -------------------------------------------------------
     A         87      87       0       0       0       0
   -------------------------------------------------------
    Total      87      87      29      29      29       0
   -------------------------------------------------------

  ==> Integral Setup <==

  DFHelper Memory: AOs need 0.037 GiB; user supplied 5.535 GiB. Using in-core AOs.

  ==> MemDFJK: Density-Fitted J/K Matrices <==

    J tasked:                   Yes
    K tasked:                    No
    wK tasked:                   No
    OpenMP threads:               4
    Memory [MiB]:              5668
    Algorithm:                 Core
    Schwarz Cutoff:           1E-12
    Mask sparsity (%):       0.9248
    Fitting Condition:        1E-10

   => Auxiliary Basis Set <=

  Basis Set: (DEF2-SVP AUX)
    Blend: DEF2-SVP-JKFIT
    Number of shells: 158
    Number of basis function: 572
    Number of Cartesian functions: 749
    Spherical Harmonics?: true
    Max angular momentum: 6

  Cached 100.0% of DFT collocation blocks in 0.053 [GiB].

  Minimum eigenvalue in the overlap matrix is 1.8739376201E-02.
  Using Symmetric Orthogonalization.

  SCF Guess: Huckel guess via on-the-fly atomic UHF (doi:10.1021/acs.jctc.8b01089).

  ==> Iterations <==

                           Total Energy        Delta E     RMS |[F,P]|

   @DF-RKS iter   1: -1388.02958636523363   -1.38803e+03   2.82527e-02 DIIS
   @DF-RKS iter   2: -1369.02944904372316    1.90001e+01   5.40482e-02 DIIS
   @DF-RKS iter   3: -1386.76612522092069   -1.77367e+01   2.86869e-02 DIIS
   @DF-RKS iter   4: -1388.99435998330136   -2.22823e+00   1.60409e-02 DIIS
   @DF-RKS iter   5: -1387.28012415688977    1.71424e+00   3.15995e-02 DIIS
   @DF-RKS iter   6: -1389.57775550322413   -2.29763e+00   9.26289e-03 DIIS
   @DF-RKS iter   7: -1389.14798147862325    4.29774e-01   1.43893e-02 DIIS
   @DF-RKS iter   8: -1389.10381356373568    4.41679e-02   1.49456e-02 DIIS
   @DF-RKS iter   9: -1389.32050464247095   -2.16691e-01   1.26356e-02 DIIS
   @DF-RKS iter  10: -1389.36923081711188   -4.87262e-02   1.22731e-02 DIIS
   @DF-RKS iter  11: -1389.36348942578047    5.74139e-03   1.23249e-02 DIIS
   @DF-RKS iter  12: -1389.60897164280800   -2.45482e-01   8.24811e-03 DIIS
   @DF-RKS iter  13: -1389.71863124602078   -1.09660e-01   4.85187e-03 DIIS
   @DF-RKS iter  14: -1389.79118654227568   -7.25553e-02   7.11493e-04 DIIS
   @DF-RKS iter  15: -1389.79215380073083   -9.67258e-04   2.81631e-04 DIIS
   @DF-RKS iter  16: -1389.79225336897230   -9.95682e-05   2.01277e-04 DIIS
   @DF-RKS iter  17: -1389.79235987619472   -1.06507e-04   2.83573e-05 DIIS
   @DF-RKS iter  18: -1389.79236196272518   -2.08653e-06   4.04040e-06 DIIS
   @DF-RKS iter  19: -1389.79236200612195   -4.33968e-08   5.98841e-07 DIIS
   @DF-RKS iter  20: -1389.79236200619152   -6.95763e-11   5.59757e-07 DIIS
   @DF-RKS iter  21: -1389.79236200694208   -7.50561e-10   1.37820e-07 DIIS
   @DF-RKS iter  22: -1389.79236200698210   -4.00178e-11   4.66762e-08 DIIS
   @DF-RKS iter  23: -1389.79236200698688   -4.77485e-12   1.27415e-08 DIIS
   @DF-RKS iter  24: -1389.79236200698710   -2.27374e-13   1.81963e-09 DIIS
  Energy and wave function converged.


  ==> Post-Iterations <==

    Orbital Energies [Eh]
    ---------------------

    Doubly Occupied:                                                      

       1A   -214.155285     2A    -24.445643     3A    -24.145801  
       4A    -24.145801     5A    -20.868009     6A    -20.867210  
       7A    -20.862974     8A    -18.697840     9A    -18.697833  
      10A     -2.900402    11A     -1.908014    12A     -1.907509  
      13A     -1.904194    14A     -1.076778    15A     -1.070888  
      16A     -0.880535    17A     -0.867827    18A     -0.486578  
      19A     -0.480481    20A     -0.465279    21A     -0.463728  
      22A     -0.460560    23A     -0.421722    24A     -0.414288  
      25A     -0.395660    26A     -0.377119    27A     -0.365257  
      28A     -0.364604    29A     -0.324510  

    Virtual:                                                              

      30A     -0.217639    31A     -0.200062    32A     -0.171520  
      33A     -0.133252    34A     -0.117599    35A     -0.008563  
      36A      0.139807    37A      0.184106    38A      0.184819  
      39A      0.188474    40A      0.521899    41A      0.523170  
      42A      0.536794    43A      0.581142    44A      0.583107  
      45A      0.849230    46A      0.862739    47A      0.901286  
      48A      0.916509    49A      0.930584    50A      0.951033  
      51A      1.049489    52A      1.072596    53A      1.120582  
      54A      1.142271    55A      1.163404    56A      1.168464  
      57A      1.274691    58A      1.351688    59A      1.588859  
      60A      1.601848    61A      2.140691    62A      2.237947  
      63A      2.265916    64A      2.322906    65A      2.444477  
      66A      2.471272    67A      2.478680    68A      2.480119  
      69A      2.486885    70A      2.522123    71A      2.605799  
      72A      2.694734    73A      2.768827    74A      2.825682  
      75A      2.904532    76A      2.937188    77A      2.956180  
      78A      2.966482    79A      3.115779    80A      3.133876  
      81A      3.194910    82A      3.195977    83A      3.202415  
      84A      3.209796    85A      3.236466    86A      3.299478  
      87A      3.433552  

    Final Occupation by Irrep:
              A 
    DOCC [    29 ]

  @DF-RKS Final Energy: -1389.79236200698710

   => Energetics <=

    Nuclear Repulsion Energy =            355.1816055152577860
    One-Electron Energy =               -2625.5238019040602921
    Two-Electron Energy =                 962.4258668983156895
    DFT Exchange-Correlation Energy =     -81.8760325165000467
    Empirical Dispersion Energy =           0.0000000000000000
    VV10 Nonlocal Energy =                  0.0000000000000000
    Total Energy =                      -1389.7923620069871049

Computation Completed


Properties will be evaluated at   0.000000,   0.000000,   0.000000 [a0]

Properties computed using the SCF density matrix

  Nuclear Dipole Moment: [e a0]
     X:    -0.0209      Y:     1.3901      Z:    -0.3060

  Electronic Dipole Moment: [e a0]
     X:     0.0230      Y:    -1.5334      Z:     0.3375

  Dipole Moment: [e a0]
     X:     0.0022      Y:    -0.1433      Z:     0.0315     Total:     0.1468

  Dipole Moment: [D]
     X:     0.0055      Y:    -0.3643      Z:     0.0802     Total:     0.3730


*** tstop() called on thinkpad at Sat Jul 10 14:57:02 2021
Module time:
	user time   =      11.85 seconds =       0.20 minutes
	system time =       0.12 seconds =       0.00 minutes
	total time  =          5 seconds =       0.08 minutes
Total time:
	user time   =      11.85 seconds =       0.20 minutes
	system time =       0.12 seconds =       0.00 minutes
	total time  =          5 seconds =       0.08 minutes

*** tstart() called on thinkpad
*** at Sat Jul 10 14:57:02 2021


         ------------------------------------------------------------
                                   SCF GRAD                          
                          Rob Parrish, Justin Turney,                
                       Andy Simmonett, and Alex Sokolov              
         ------------------------------------------------------------

  ==> Geometry <==

    Molecular point group: c1
    Full point group: C1

    Geometry (in Angstrom), charge = 0, multiplicity = 1:

       Center              X                  Y                   Z               Mass       
    ------------   -----------------  -----------------  -----------------  -----------------
         CR          -0.001007494106     0.066977222278    -0.014740872913    51.940506230000
         O            1.032026911530     0.774294509849    -0.925580220059    15.994914619570
         O           -1.059610119760     1.061379315891     0.521553481217    15.994914619570
         F           -0.777319056575    -1.116564494645    -0.902008870901    18.998403162730
         F            0.803296019493    -0.612016410908     1.282463034931    18.998403162730

  Nuclear repulsion =  355.181605515257786

  ==> Basis Set <==

  Basis Set: DEF2-SVP
    Blend: DEF2-SVP
    Number of shells: 35
    Number of basis function: 87
    Number of Cartesian functions: 96
    Spherical Harmonics?: true
    Max angular momentum: 3

  ==> DFJKGrad: Density-Fitted SCF Gradients <==

    Gradient:                    1
    J tasked:                  Yes
    K tasked:                   No
    wK tasked:                  No
    OpenMP threads:              4
    Integrals threads:           4
    Memory [MiB]:             5722
    Schwarz Cutoff:          0E+00
    Fitting Condition:       1E-10

   => Auxiliary Basis Set <=

  Basis Set: (DEF2-SVP AUX)
    Blend: DEF2-SVP-JKFIT
    Number of shells: 158
    Number of basis function: 572
    Number of Cartesian functions: 749
    Spherical Harmonics?: true
    Max angular momentum: 6

  ==> DFT Potential <==

   => Composite Functional: MY LDA <= 

    Slater exchange
    Perdew & Wang
    P. A. M. Dirac, Math. Proc. Cambridge Philos. Soc. 26, 376 (1930)
    F. Bloch, Z. Phys. 57, 545 (1929)
    J. P. Perdew and Y. Wang, Phys. Rev. B 45, 13244 (1992)

    Deriv               =              1
    GGA                 =          FALSE
    Meta                =          FALSE

    Exchange Hybrid     =          FALSE
    MP2 Hybrid          =          FALSE

   => Exchange Functionals <=

    1.0000         XC_lda_x

   => Correlation Functionals <=

    1.0000      XC_lda_c_pw

   => Molecular Quadrature <=

    Radial Scheme          =       TREUTLER
    Pruning Scheme         =           FLAT
    Nuclear Scheme         =       TREUTLER

    BS radius alpha        =              1
    Pruning alpha          =              1
    Radial Points          =             75
    Spherical Points       =            302
    Total Points           =         113250
    Total Blocks           =            920
    Max Points             =            256
    Max Functions          =             84


  -Total Gradient:
     Atom            X                  Y                   Z
    ------   -----------------  -----------------  -----------------
       1        0.000012424841    -0.000853006613     0.000188054262
       2        0.008474055997    -0.002376468827    -0.005582585695
       3       -0.008437411505    -0.000054854073     0.006117726605
       4        0.001006817205     0.001926336331     0.001072678810
       5       -0.001054482147     0.001268434700    -0.001776204526


*** tstop() called on thinkpad at Sat Jul 10 14:57:04 2021
Module time:
	user time   =       3.13 seconds =       0.05 minutes
	system time =       0.05 seconds =       0.00 minutes
	total time  =          2 seconds =       0.03 minutes
Total time:
	user time   =      14.98 seconds =       0.25 minutes
	system time =       0.17 seconds =       0.00 minutes
	total time  =          7 seconds =       0.12 minutes

			-----------------------------------------
			 OPTKING 2.0: for geometry optimizations 
			  - R.A. King,  Bethel University        
			-----------------------------------------

	Internal coordinates to be generated automatically.
	Detected frag 1 with atoms:  1 2 3 4 5
	---Fragment 1 Bond Connectivity---
	 1 : 2 3 4 5
	 2 : 1
	 3 : 1
	 4 : 1
	 5 : 1

	---Fragment 1 Geometry and Gradient---
	 CR         -0.0019038879        0.1265686067       -0.0278562127
	 O           1.9502482169        1.4632045641       -1.7490931231
	 O          -2.0023729261        2.0057162223        0.9855932393
	 F          -1.4689201290       -2.1100010963       -1.7045497287
	 F           1.5180094745       -1.1565434009        2.4235039020
	             0.0000124248       -0.0008530066        0.0001880543
	             0.0084740560       -0.0023764688       -0.0055825857
	            -0.0084374115       -0.0000548541        0.0061177266
	             0.0010068172        0.0019263363        0.0010726788
	            -0.0010544821        0.0012684347       -0.0017762045

	Previous optimization step data not found.  Starting new optimization.

	---Fragment 1 Intrafragment Coordinates---
	 - Coordinate -           - BOHR/RAD -       - ANG/DEG -
	 R(1,2)           =         2.925773	       1.548253
	 R(1,3)           =         2.925774	       1.548253
	 R(1,4)           =         3.156847	       1.670531
	 R(1,5)           =         3.156846	       1.670531
	 B(2,1,3)         =         1.946113	     111.504060
	 B(2,1,4)         =         1.897868	     108.739823
	 B(2,1,5)         =         1.897867	     108.739770
	 B(3,1,4)         =         1.897872	     108.740061
	 B(3,1,5)         =         1.897872	     108.740055
	 B(4,1,5)         =         1.926457	     110.377858

	Current energy   :     -1389.7923620070

	Generating empirical Hessian (Schlegel '84) for each fragment.
	Taking RFO optimization step.
	Going to follow RFO solution 1.
	Using RFO vector 1.
	Norm of target step-size    0.07213
	Projected energy change by RFO approximation:        -0.0020725357

	Back-transformation to cartesian coordinates...
	Successfully converged to displaced geometry.

	--- Internal Coordinate Step in ANG or DEG, aJ/ANG or AJ/DEG ---
	 ---------------------------------------------------------------------------
	   Coordinate                Previous        Force       Change         New 
	   ----------                --------       ------       ------       ------
	    1 R(1,2)          =      1.548253    -0.064781    -0.001514     1.546739
	    2 R(1,3)          =      1.548253    -0.064783    -0.001514     1.546739
	    3 R(1,4)          =      1.670531     0.019879     0.000950     1.671481
	    4 R(1,5)          =      1.670531     0.019880     0.000950     1.671481
	    5 B(2,1,3)        =    111.504060    -0.001255    -3.747359   107.756701
	    6 B(2,1,4)        =    108.739823     0.000268     0.783450   109.523273
	    7 B(2,1,5)        =    108.739770     0.000268     0.783495   109.523265
	    8 B(3,1,4)        =    108.740061     0.000268     0.783260   109.523321
	    9 B(3,1,5)        =    108.740055     0.000268     0.783270   109.523325
	   10 B(4,1,5)        =    110.377858     0.000181     0.553087   110.930946
	 ---------------------------------------------------------------------------
	Successfully symmetrized geometry.

  ==> Convergence Check <==

  Measures of convergence in internal coordinates in au.
  Criteria marked as inactive (o), active & met (*), and active & unmet ( ).
  --------------------------------------------------------------------------------------------- ~
   Step     Total Energy     Delta E     MAX Force     RMS Force      MAX Disp      RMS Disp    ~
  --------------------------------------------------------------------------------------------- ~
    Convergence Criteria             o    2.00e-06 *    1.00e-06 *    6.00e-06 *    4.00e-06 *  ~
  --------------------------------------------------------------------------------------------- ~
      1   -1389.79236201   -1.39e+03 o    1.65e-02      6.80e-03      6.54e-02      2.27e-02    ~
  ---------------------------------------------------------------------------------------------

	Writing optimization data to binary file.
	Structure for next step:
	Cartesian Geometry (in Angstrom)
	   CR    -0.0007329204   0.0487829956  -0.0107370127
	    O     1.0068679126   0.7990462458  -0.9130932758
	    O    -1.0350918406   1.0793103351   0.4996712830
	    F    -0.7802296570  -1.1297961754  -0.9035890157
	    F     0.8065727660  -0.6232732593   1.2894345736
			--------------------------
			 OPTKING Finished Execution 
			--------------------------

    Structure for next step:
    Molecular point group: c1
    Full point group: C1

    Geometry (in Angstrom), charge = 0, multiplicity = 1:

    CR          -0.000822887480     0.054750110768    -0.012050207793
    O            1.006777949501     0.805013363855    -0.914406474369
    O           -1.035181811788     1.085277454288     0.498358089966
    F           -0.780319627196    -1.123829064854    -0.904902214253
    F            0.806482802078    -0.617306146798     1.288121383610

gradient() will perform analytic gradient computation.

*** tstart() called on thinkpad
*** at Sat Jul 10 14:57:04 2021

   => Loading Basis Set <=

    Name: DEF2-SVP
    Role: ORBITAL
    Keyword: BASIS
    atoms 1   entry CR         line   614 file /usr/share/psi4/basis/def2-svp.gbs 
    atoms 2-3 entry O          line   130 file /usr/share/psi4/basis/def2-svp.gbs 
    atoms 4-5 entry F          line   150 file /usr/share/psi4/basis/def2-svp.gbs 


         ---------------------------------------------------------
                                   SCF
               by Justin Turney, Rob Parrish, Andy Simmonett
                          and Daniel G. A. Smith
                              RKS Reference
                        4 Threads,   7629 MiB Core
         ---------------------------------------------------------

  ==> Geometry <==

    Molecular point group: c1
    Full point group: C1

    Geometry (in Angstrom), charge = 0, multiplicity = 1:

       Center              X                  Y                   Z               Mass       
    ------------   -----------------  -----------------  -----------------  -----------------
         CR          -0.000822887480     0.054750110768    -0.012050207793    51.940506230000
         O            1.006777949501     0.805013363855    -0.914406474369    15.994914619570
         O           -1.035181811788     1.085277454288     0.498358089966    15.994914619570
         F           -0.780319627196    -1.123829064854    -0.904902214253    18.998403162730
         F            0.806482802078    -0.617306146798     1.288121383610    18.998403162730

  Running in c1 symmetry.

  Rotational constants: A =      0.15288  B =      0.13820  C =      0.12735 [cm^-1]
  Rotational constants: A =   4583.27367  B =   4143.22696  C =   3817.92633 [MHz]
  Nuclear repulsion =  355.220610856998348

  Charge       = 0
  Multiplicity = 1
  Electrons    = 58
  Nalpha       = 29
  Nbeta        = 29

  ==> Algorithm <==

  SCF Algorithm Type is DF.
  DIIS enabled.
  MOM disabled.
  Fractional occupation disabled.
  Guess Type is READ.
  Energy threshold   = 1.00e-08
  Density threshold  = 1.00e-08
  Integral threshold = 0.00e+00

  ==> Primary Basis <==

  Basis Set: DEF2-SVP
    Blend: DEF2-SVP
    Number of shells: 35
    Number of basis function: 87
    Number of Cartesian functions: 96
    Spherical Harmonics?: true
    Max angular momentum: 3

  ==> DFT Potential <==

   => Composite Functional: MY LDA <= 

    Slater exchange
    Perdew & Wang
    P. A. M. Dirac, Math. Proc. Cambridge Philos. Soc. 26, 376 (1930)
    F. Bloch, Z. Phys. 57, 545 (1929)
    J. P. Perdew and Y. Wang, Phys. Rev. B 45, 13244 (1992)

    Deriv               =              1
    GGA                 =          FALSE
    Meta                =          FALSE

    Exchange Hybrid     =          FALSE
    MP2 Hybrid          =          FALSE

   => Exchange Functionals <=

    1.0000         XC_lda_x

   => Correlation Functionals <=

    1.0000      XC_lda_c_pw

   => Molecular Quadrature <=

    Radial Scheme          =       TREUTLER
    Pruning Scheme         =           FLAT
    Nuclear Scheme         =       TREUTLER

    BS radius alpha        =              1
    Pruning alpha          =              1
    Radial Points          =             75
    Spherical Points       =            302
    Total Points           =         113250
    Total Blocks           =            917
    Max Points             =            256
    Max Functions          =             84

   => Loading Basis Set <=

    Name: (DEF2-SVP AUX)
    Role: JKFIT
    Keyword: DF_BASIS_SCF
    atoms 1   entry CR         line  1731 file /usr/share/psi4/basis/def2-svp-jkfit.gbs 
    atoms 2-3 entry O          line   323 file /usr/share/psi4/basis/def2-svp-jkfit.gbs 
    atoms 4-5 entry F          line   383 file /usr/share/psi4/basis/def2-svp-jkfit.gbs 

   => Loading Basis Set <=

    Name: DEF2-SVP
    Role: ORBITAL
    Keyword: BASIS
    atoms 1   entry CR         line   614 file /usr/share/psi4/basis/def2-svp.gbs 
    atoms 2-3 entry O          line   130 file /usr/share/psi4/basis/def2-svp.gbs 
    atoms 4-5 entry F          line   150 file /usr/share/psi4/basis/def2-svp.gbs 

  Reading orbitals from file 180, no projection.

  ==> Pre-Iterations <==

   -------------------------------------------------------
    Irrep   Nso     Nmo     Nalpha   Nbeta   Ndocc  Nsocc
   -------------------------------------------------------
     A         87      87       0       0       0       0
   -------------------------------------------------------
    Total      87      87      29      29      29       0
   -------------------------------------------------------

  ==> Integral Setup <==

  DFHelper Memory: AOs need 0.037 GiB; user supplied 5.535 GiB. Using in-core AOs.

  ==> MemDFJK: Density-Fitted J/K Matrices <==

    J tasked:                   Yes
    K tasked:                    No
    wK tasked:                   No
    OpenMP threads:               4
    Memory [MiB]:              5668
    Algorithm:                 Core
    Schwarz Cutoff:           1E-12
    Mask sparsity (%):       0.9512
    Fitting Condition:        1E-10

   => Auxiliary Basis Set <=

  Basis Set: (DEF2-SVP AUX)
    Blend: DEF2-SVP-JKFIT
    Number of shells: 158
    Number of basis function: 572
    Number of Cartesian functions: 749
    Spherical Harmonics?: true
    Max angular momentum: 6

  Cached 100.0% of DFT collocation blocks in 0.053 [GiB].

  Minimum eigenvalue in the overlap matrix is 1.8174312531E-02.
  Using Symmetric Orthogonalization.

  SCF Guess: Orbitals guess was supplied from a previous computation.

  ==> Iterations <==

                           Total Energy        Delta E     RMS |[F,P]|

   @DF-RKS iter   0: -1389.79335602157244   -1.38979e+03   1.07500e-03 
   @DF-RKS iter   1: -1389.79272401784351    6.32004e-04   2.77912e-04 DIIS
   @DF-RKS iter   2: -1389.78278263032348    9.94139e-03   2.00366e-03 DIIS
   @DF-RKS iter   3: -1389.79262699571518   -9.84437e-03   3.51267e-04 DIIS
   @DF-RKS iter   4: -1389.79293327679261   -3.06281e-04   6.94555e-05 DIIS
   @DF-RKS iter   5: -1389.79294609190447   -1.28151e-05   7.75848e-06 DIIS
   @DF-RKS iter   6: -1389.79294622119687   -1.29292e-07   2.49540e-06 DIIS
   @DF-RKS iter   7: -1389.79294622430734   -3.11047e-09   1.99431e-06 DIIS
   @DF-RKS iter   8: -1389.79294623473675   -1.04294e-08   7.11007e-07 DIIS
   @DF-RKS iter   9: -1389.79294623594001   -1.20326e-09   9.63528e-08 DIIS
   @DF-RKS iter  10: -1389.79294623596593   -2.59206e-11   2.29860e-08 DIIS
   @DF-RKS iter  11: -1389.79294623596570    2.27374e-13   5.70433e-09 DIIS
  Energy and wave function converged.


  ==> Post-Iterations <==

    Orbital Energies [Eh]
    ---------------------

    Doubly Occupied:                                                      

       1A   -214.154821     2A    -24.445099     3A    -24.144829  
       4A    -24.144829     5A    -20.867250     6A    -20.866646  
       7A    -20.862702     8A    -18.698030     9A    -18.698021  
      10A     -2.900095    11A     -1.908347    12A     -1.907214  
      13A     -1.903398    14A     -1.076060    15A     -1.070022  
      16A     -0.879668    17A     -0.869147    18A     -0.486537  
      19A     -0.479696    20A     -0.464440    21A     -0.463686  
      22A     -0.459841    23A     -0.421102    24A     -0.413816  
      25A     -0.396362    26A     -0.378206    27A     -0.365971  
      28A     -0.364768    29A     -0.322820  

    Virtual:                                                              

      30A     -0.214415    31A     -0.201168    32A     -0.169333  
      33A     -0.137697    34A     -0.113960    35A     -0.009487  
      36A      0.136890    37A      0.184884    38A      0.185981  
      39A      0.189643    40A      0.520190    41A      0.525112  
      42A      0.541430    43A      0.576445    44A      0.587250  
      45A      0.841992    46A      0.864088    47A      0.902499  
      48A      0.919980    49A      0.928897    50A      0.959705  
      51A      1.050195    52A      1.073848    53A      1.124367  
      54A      1.138057    55A      1.157200    56A      1.164019  
      57A      1.279035    58A      1.344945    59A      1.589412  
      60A      1.599845    61A      2.148337    62A      2.230295  
      63A      2.273057    64A      2.322218    65A      2.451224  
      66A      2.456187    67A      2.477419    68A      2.478288  
      69A      2.482925    70A      2.522231    71A      2.613530  
      72A      2.687787    73A      2.765884    74A      2.828882  
      75A      2.905547    76A      2.938884    77A      2.956193  
      78A      2.967093    79A      3.128399    80A      3.140871  
      81A      3.195048    82A      3.199096    83A      3.206887  
      84A      3.213555    85A      3.230401    86A      3.293508  
      87A      3.434781  

    Final Occupation by Irrep:
              A 
    DOCC [    29 ]

  @DF-RKS Final Energy: -1389.79294623596570

   => Energetics <=

    Nuclear Repulsion Energy =            355.2206108569983485
    One-Electron Energy =               -2625.6189385744892206
    Two-Electron Energy =                 962.4841399458351816
    DFT Exchange-Correlation Energy =     -81.8787584643101667
    Empirical Dispersion Energy =           0.0000000000000000
    VV10 Nonlocal Energy =                  0.0000000000000000
    Total Energy =                      -1389.7929462359657009

Computation Completed


Properties will be evaluated at   0.000000,   0.000000,   0.000000 [a0]

Properties computed using the SCF density matrix

  Nuclear Dipole Moment: [e a0]
     X:    -0.0218      Y:     1.4477      Z:    -0.3186

  Electronic Dipole Moment: [e a0]
     X:     0.0242      Y:    -1.6108      Z:     0.3545

  Dipole Moment: [e a0]
     X:     0.0024      Y:    -0.1631      Z:     0.0359     Total:     0.1670

  Dipole Moment: [D]
     X:     0.0062      Y:    -0.4145      Z:     0.0912     Total:     0.4244


*** tstop() called on thinkpad at Sat Jul 10 14:57:07 2021
Module time:
	user time   =       6.00 seconds =       0.10 minutes
	system time =       0.06 seconds =       0.00 minutes
	total time  =          3 seconds =       0.05 minutes
Total time:
	user time   =      21.06 seconds =       0.35 minutes
	system time =       0.24 seconds =       0.00 minutes
	total time  =         10 seconds =       0.17 minutes

*** tstart() called on thinkpad
*** at Sat Jul 10 14:57:07 2021


         ------------------------------------------------------------
                                   SCF GRAD                          
                          Rob Parrish, Justin Turney,                
                       Andy Simmonett, and Alex Sokolov              
         ------------------------------------------------------------

  ==> Geometry <==

    Molecular point group: c1
    Full point group: C1

    Geometry (in Angstrom), charge = 0, multiplicity = 1:

       Center              X                  Y                   Z               Mass       
    ------------   -----------------  -----------------  -----------------  -----------------
         CR          -0.000822887480     0.054750110768    -0.012050207793    51.940506230000
         O            1.006777949501     0.805013363855    -0.914406474369    15.994914619570
         O           -1.035181811788     1.085277454288     0.498358089966    15.994914619570
         F           -0.780319627196    -1.123829064854    -0.904902214253    18.998403162730
         F            0.806482802078    -0.617306146798     1.288121383610    18.998403162730

  Nuclear repulsion =  355.220610856998348

  ==> Basis Set <==

  Basis Set: DEF2-SVP
    Blend: DEF2-SVP
    Number of shells: 35
    Number of basis function: 87
    Number of Cartesian functions: 96
    Spherical Harmonics?: true
    Max angular momentum: 3

  ==> DFJKGrad: Density-Fitted SCF Gradients <==

    Gradient:                    1
    J tasked:                  Yes
    K tasked:                   No
    wK tasked:                  No
    OpenMP threads:              4
    Integrals threads:           4
    Memory [MiB]:             5722
    Schwarz Cutoff:          0E+00
    Fitting Condition:       1E-10

   => Auxiliary Basis Set <=

  Basis Set: (DEF2-SVP AUX)
    Blend: DEF2-SVP-JKFIT
    Number of shells: 158
    Number of basis function: 572
    Number of Cartesian functions: 749
    Spherical Harmonics?: true
    Max angular momentum: 6

  ==> DFT Potential <==

   => Composite Functional: MY LDA <= 

    Slater exchange
    Perdew & Wang
    P. A. M. Dirac, Math. Proc. Cambridge Philos. Soc. 26, 376 (1930)
    F. Bloch, Z. Phys. 57, 545 (1929)
    J. P. Perdew and Y. Wang, Phys. Rev. B 45, 13244 (1992)

    Deriv               =              1
    GGA                 =          FALSE
    Meta                =          FALSE

    Exchange Hybrid     =          FALSE
    MP2 Hybrid          =          FALSE

   => Exchange Functionals <=

    1.0000         XC_lda_x

   => Correlation Functionals <=

    1.0000      XC_lda_c_pw

   => Molecular Quadrature <=

    Radial Scheme          =       TREUTLER
    Pruning Scheme         =           FLAT
    Nuclear Scheme         =       TREUTLER

    BS radius alpha        =              1
    Pruning alpha          =              1
    Radial Points          =             75
    Spherical Points       =            302
    Total Points           =         113250
    Total Blocks           =            917
    Max Points             =            256
    Max Functions          =             84


  -Total Gradient:
     Atom            X                  Y                   Z
    ------   -----------------  -----------------  -----------------
       1        0.000191843631    -0.012764759195     0.002809535419
       2        0.003717747764     0.004408996313    -0.003708373134
       3       -0.003865957631     0.005450020673     0.001538493344
       4        0.000968807107     0.001715837421     0.001059823825
       5       -0.001010846429     0.001083960833    -0.001676162931


*** tstop() called on thinkpad at Sat Jul 10 14:57:08 2021
Module time:
	user time   =       3.13 seconds =       0.05 minutes
	system time =       0.06 seconds =       0.00 minutes
	total time  =          1 seconds =       0.02 minutes
Total time:
	user time   =      24.19 seconds =       0.40 minutes
	system time =       0.30 seconds =       0.01 minutes
	total time  =         11 seconds =       0.18 minutes

			-----------------------------------------
			 OPTKING 2.0: for geometry optimizations 
			  - R.A. King,  Bethel University        
			-----------------------------------------

	Previous internal coordinate definitions found.
	---Fragment 1 Geometry and Gradient---
	 CR         -0.0015550320        0.1034627147       -0.0227715925
	 O           1.9025345937        1.5212547850       -1.7279778039
	 O          -1.9562101143        2.0508771587        0.9417603024
	 F          -1.4745903857       -2.1237291444       -1.7100173553
	 F           1.5240316208       -1.1665395530        2.4341966314
	             0.0001918436       -0.0127647592        0.0028095354
	             0.0037177478        0.0044089963       -0.0037083731
	            -0.0038659576        0.0054500207        0.0015384933
	             0.0009688071        0.0017158374        0.0010598238
	            -0.0010108464        0.0010839608       -0.0016761629

	---Fragment 1 Intrafragment Coordinates---
	 - Coordinate -           - BOHR/RAD -       - ANG/DEG -
	 R(1,2)           =         2.922913	       1.546739
	 R(1,3)           =         2.922913	       1.546739
	 R(1,4)           =         3.158641	       1.671481
	 R(1,5)           =         3.158641	       1.671481
	 B(2,1,3)         =         1.880709	     107.756701
	 B(2,1,4)         =         1.911542	     109.523273
	 B(2,1,5)         =         1.911542	     109.523265
	 B(3,1,4)         =         1.911543	     109.523321
	 B(3,1,5)         =         1.911543	     109.523325
	 B(4,1,5)         =         1.936110	     110.930946

	Current energy   :     -1389.7929462360

	Energy change for the previous step:
		Projected    :        -0.0020725357
		Actual       :        -0.0005842290

	Performing BFGS update.
	Previous computed or guess Hessian on step 1.
	Steps to be used in Hessian update: 1
	Taking RFO optimization step.
	Going to follow RFO solution 1.
	Using RFO vector 1.
	Norm of target step-size    0.01133
	Projected energy change by RFO approximation:        -0.0000832842

	Back-transformation to cartesian coordinates...
	Successfully converged to displaced geometry.

	--- Internal Coordinate Step in ANG or DEG, aJ/ANG or AJ/DEG ---
	 ---------------------------------------------------------------------------
	   Coordinate                Previous        Force       Change         New 
	   ----------                --------       ------       ------       ------
	    1 R(1,2)          =      1.546739    -0.055502    -0.001167     1.545572
	    2 R(1,3)          =      1.546739    -0.055503    -0.001167     1.545572
	    3 R(1,4)          =      1.671481     0.018455     0.000791     1.672272
	    4 R(1,5)          =      1.671481     0.018456     0.000791     1.672272
	    5 B(2,1,3)        =    107.756701     0.000264     0.548094   108.304795
	    6 B(2,1,4)        =    109.523273    -0.000040    -0.074664   109.448609
	    7 B(2,1,5)        =    109.523265    -0.000040    -0.074654   109.448611
	    8 B(3,1,4)        =    109.523321    -0.000040    -0.074701   109.448620
	    9 B(3,1,5)        =    109.523325    -0.000040    -0.074701   109.448624
	   10 B(4,1,5)        =    110.930946    -0.000095    -0.229451   110.701495
	 ---------------------------------------------------------------------------
	Successfully symmetrized geometry.

  ==> Convergence Check <==

  Measures of convergence in internal coordinates in au.
  Criteria marked as inactive (o), active & met (*), and active & unmet ( ).
  ---------------------------------------------------------------------------------------------
   Step     Total Energy     Delta E     MAX Force     RMS Force      MAX Disp      RMS Disp   
  ---------------------------------------------------------------------------------------------
    Convergence Criteria             o    2.00e-06 *    1.00e-06 *    6.00e-06 *    4.00e-06 *
  ---------------------------------------------------------------------------------------------
      2   -1389.79294624   -5.84e-04 o    6.74e-03      3.40e-03      9.57e-03      3.59e-03    ~
  ---------------------------------------------------------------------------------------------

	Writing optimization data to binary file.
	Structure for next step:
	Cartesian Geometry (in Angstrom)
	   CR    -0.0008806025   0.0586072574  -0.0128993002
	    O     1.0095969849   0.8019761085  -0.9157448139
	    O    -1.0379208912   1.0830025703   0.5008654387
	    F    -0.7796108495  -1.1228717489  -0.9040673118
	    F     0.8057517834  -0.6168084709   1.2869665645
			--------------------------
			 OPTKING Finished Execution 
			--------------------------

    Structure for next step:
    Molecular point group: c1
    Full point group: C1

    Geometry (in Angstrom), charge = 0, multiplicity = 1:

    CR          -0.000863039547     0.057434282916    -0.012641096912
    O            1.009614551777     0.800803136960    -0.915486614199
    O           -1.037903332307     1.081829599842     0.501123643968
    F           -0.779593289607    -1.124044728048    -0.903809112063
    F            0.805769349562    -0.617981448115     1.287224772888

gradient() will perform analytic gradient computation.

*** tstart() called on thinkpad
*** at Sat Jul 10 14:57:08 2021

   => Loading Basis Set <=

    Name: DEF2-SVP
    Role: ORBITAL
    Keyword: BASIS
    atoms 1   entry CR         line   614 file /usr/share/psi4/basis/def2-svp.gbs 
    atoms 2-3 entry O          line   130 file /usr/share/psi4/basis/def2-svp.gbs 
    atoms 4-5 entry F          line   150 file /usr/share/psi4/basis/def2-svp.gbs 


         ---------------------------------------------------------
                                   SCF
               by Justin Turney, Rob Parrish, Andy Simmonett
                          and Daniel G. A. Smith
                              RKS Reference
                        4 Threads,   7629 MiB Core
         ---------------------------------------------------------

  ==> Geometry <==

    Molecular point group: c1
    Full point group: C1

    Geometry (in Angstrom), charge = 0, multiplicity = 1:

       Center              X                  Y                   Z               Mass       
    ------------   -----------------  -----------------  -----------------  -----------------
         CR          -0.000863039547     0.057434282916    -0.012641096912    51.940506230000
         O            1.009614551777     0.800803136960    -0.915486614199    15.994914619570
         O           -1.037903332307     1.081829599842     0.501123643968    15.994914619570
         F           -0.779593289607    -1.124044728048    -0.903809112063    18.998403162730
         F            0.805769349562    -0.617981448115     1.287224772888    18.998403162730

  Running in c1 symmetry.

  Rotational constants: A =      0.15277  B =      0.13804  C =      0.12767 [cm^-1]
  Rotational constants: A =   4580.06612  B =   4138.42432  C =   3827.34269 [MHz]
  Nuclear repulsion =  355.265188538787584

  Charge       = 0
  Multiplicity = 1
  Electrons    = 58
  Nalpha       = 29
  Nbeta        = 29

  ==> Algorithm <==

  SCF Algorithm Type is DF.
  DIIS enabled.
  MOM disabled.
  Fractional occupation disabled.
  Guess Type is READ.
  Energy threshold   = 1.00e-08
  Density threshold  = 1.00e-08
  Integral threshold = 0.00e+00

  ==> Primary Basis <==

  Basis Set: DEF2-SVP
    Blend: DEF2-SVP
    Number of shells: 35
    Number of basis function: 87
    Number of Cartesian functions: 96
    Spherical Harmonics?: true
    Max angular momentum: 3

  ==> DFT Potential <==

   => Composite Functional: MY LDA <= 

    Slater exchange
    Perdew & Wang
    P. A. M. Dirac, Math. Proc. Cambridge Philos. Soc. 26, 376 (1930)
    F. Bloch, Z. Phys. 57, 545 (1929)
    J. P. Perdew and Y. Wang, Phys. Rev. B 45, 13244 (1992)

    Deriv               =              1
    GGA                 =          FALSE
    Meta                =          FALSE

    Exchange Hybrid     =          FALSE
    MP2 Hybrid          =          FALSE

   => Exchange Functionals <=

    1.0000         XC_lda_x

   => Correlation Functionals <=

    1.0000      XC_lda_c_pw

   => Molecular Quadrature <=

    Radial Scheme          =       TREUTLER
    Pruning Scheme         =           FLAT
    Nuclear Scheme         =       TREUTLER

    BS radius alpha        =              1
    Pruning alpha          =              1
    Radial Points          =             75
    Spherical Points       =            302
    Total Points           =         113250
    Total Blocks           =            920
    Max Points             =            255
    Max Functions          =             84

   => Loading Basis Set <=

    Name: (DEF2-SVP AUX)
    Role: JKFIT
    Keyword: DF_BASIS_SCF
    atoms 1   entry CR         line  1731 file /usr/share/psi4/basis/def2-svp-jkfit.gbs 
    atoms 2-3 entry O          line   323 file /usr/share/psi4/basis/def2-svp-jkfit.gbs 
    atoms 4-5 entry F          line   383 file /usr/share/psi4/basis/def2-svp-jkfit.gbs 

   => Loading Basis Set <=

    Name: DEF2-SVP
    Role: ORBITAL
    Keyword: BASIS
    atoms 1   entry CR         line   614 file /usr/share/psi4/basis/def2-svp.gbs 
    atoms 2-3 entry O          line   130 file /usr/share/psi4/basis/def2-svp.gbs 
    atoms 4-5 entry F          line   150 file /usr/share/psi4/basis/def2-svp.gbs 

  Reading orbitals from file 180, no projection.

  ==> Pre-Iterations <==

   -------------------------------------------------------
    Irrep   Nso     Nmo     Nalpha   Nbeta   Ndocc  Nsocc
   -------------------------------------------------------
     A         87      87       0       0       0       0
   -------------------------------------------------------
    Total      87      87      29      29      29       0
   -------------------------------------------------------

  ==> Integral Setup <==

  DFHelper Memory: AOs need 0.037 GiB; user supplied 5.535 GiB. Using in-core AOs.

  ==> MemDFJK: Density-Fitted J/K Matrices <==

    J tasked:                   Yes
    K tasked:                    No
    wK tasked:                   No
    OpenMP threads:               4
    Memory [MiB]:              5668
    Algorithm:                 Core
    Schwarz Cutoff:           1E-12
    Mask sparsity (%):       0.9512
    Fitting Condition:        1E-10

   => Auxiliary Basis Set <=

  Basis Set: (DEF2-SVP AUX)
    Blend: DEF2-SVP-JKFIT
    Number of shells: 158
    Number of basis function: 572
    Number of Cartesian functions: 749
    Spherical Harmonics?: true
    Max angular momentum: 6

  Cached 100.0% of DFT collocation blocks in 0.053 [GiB].

  Minimum eigenvalue in the overlap matrix is 1.8265107347E-02.
  Using Symmetric Orthogonalization.

  SCF Guess: Orbitals guess was supplied from a previous computation.

  ==> Iterations <==

                           Total Energy        Delta E     RMS |[F,P]|

   @DF-RKS iter   0: -1389.79299665199483   -1.38979e+03   1.99463e-04 
   @DF-RKS iter   1: -1389.79299919965911   -2.54766e-06   1.61636e-05 DIIS
   @DF-RKS iter   2: -1389.79299968978376   -4.90125e-07   8.69646e-06 DIIS
   @DF-RKS iter   3: -1389.79299938487975    3.04904e-07   1.45256e-05 DIIS
   @DF-RKS iter   4: -1389.79299987380386   -4.88924e-07   1.24510e-06 DIIS
   @DF-RKS iter   5: -1389.79299987679610   -2.99224e-09   4.26153e-07 DIIS
   @DF-RKS iter   6: -1389.79299987687659   -8.04903e-11   4.03774e-07 DIIS
   @DF-RKS iter   7: -1389.79299987718673   -3.10138e-10   2.36249e-07 DIIS
   @DF-RKS iter   8: -1389.79299987735931   -1.72577e-10   2.83753e-08 DIIS
   @DF-RKS iter   9: -1389.79299987736294   -3.63798e-12   3.83277e-09 DIIS
  Energy and wave function converged.


  ==> Post-Iterations <==

    Orbital Energies [Eh]
    ---------------------

    Doubly Occupied:                                                      

       1A   -214.154737     2A    -24.445072     3A    -24.144681  
       4A    -24.144679     5A    -20.867236     6A    -20.866621  
       7A    -20.862635     8A    -18.698148     9A    -18.698140  
      10A     -2.900172    11A     -1.908305    12A     -1.907569  
      13A     -1.903375    14A     -1.075785    15A     -1.069826  
      16A     -0.880069    17A     -0.869247    18A     -0.486314  
      19A     -0.479488    20A     -0.464409    21A     -0.463823  
      22A     -0.460074    23A     -0.421337    24A     -0.413603  
      25A     -0.396181    26A     -0.378209    27A     -0.366017  
      28A     -0.365050    29A     -0.323351  

    Virtual:                                                              

      30A     -0.214874    31A     -0.200854    32A     -0.169584  
      33A     -0.136893    34A     -0.114012    35A     -0.009298  
      36A      0.137438    37A      0.185448    38A      0.185605  
      39A      0.188952    40A      0.520381    41A      0.524683  
      42A      0.540914    43A      0.577032    44A      0.586989  
      45A      0.842926    46A      0.863773    47A      0.902115  
      48A      0.919385    49A      0.929096    50A      0.958627  
      51A      1.049929    52A      1.073678    53A      1.123570  
      54A      1.139132    55A      1.158519    56A      1.163995  
      57A      1.277685    58A      1.345992    59A      1.589122  
      60A      1.601172    61A      2.145750    62A      2.230418  
      63A      2.271166    64A      2.323355    65A      2.450837  
      66A      2.458151    67A      2.477403    68A      2.478956  
      69A      2.483808    70A      2.522181    71A      2.613009  
      72A      2.689061    73A      2.767502    74A      2.829241  
      75A      2.905930    76A      2.938940    77A      2.956414  
      78A      2.967222    79A      3.130214    80A      3.138733  
      81A      3.194206    82A      3.197684    83A      3.206018  
      84A      3.213096    85A      3.233250    86A      3.295343  
      87A      3.434610  

    Final Occupation by Irrep:
              A 
    DOCC [    29 ]

  @DF-RKS Final Energy: -1389.79299987736294

   => Energetics <=

    Nuclear Repulsion Energy =            355.2651885387875836
    One-Electron Energy =               -2625.7061998950798625
    Two-Electron Energy =                 962.5275809954139277
    DFT Exchange-Correlation Energy =     -81.8795695164847785
    Empirical Dispersion Energy =           0.0000000000000000
    VV10 Nonlocal Energy =                  0.0000000000000000
    Total Energy =                      -1389.7929998773629450

Computation Completed


Properties will be evaluated at   0.000000,   0.000000,   0.000000 [a0]

Properties computed using the SCF density matrix

  Nuclear Dipole Moment: [e a0]
     X:    -0.0216      Y:     1.4386      Z:    -0.3166

  Electronic Dipole Moment: [e a0]
     X:     0.0239      Y:    -1.5929      Z:     0.3506

  Dipole Moment: [e a0]
     X:     0.0023      Y:    -0.1544      Z:     0.0340     Total:     0.1581

  Dipole Moment: [D]
     X:     0.0059      Y:    -0.3924      Z:     0.0864     Total:     0.4018


*** tstop() called on thinkpad at Sat Jul 10 14:57:11 2021
Module time:
	user time   =       5.48 seconds =       0.09 minutes
	system time =       0.05 seconds =       0.00 minutes
	total time  =          3 seconds =       0.05 minutes
Total time:
	user time   =      29.75 seconds =       0.50 minutes
	system time =       0.36 seconds =       0.01 minutes
	total time  =         14 seconds =       0.23 minutes

*** tstart() called on thinkpad
*** at Sat Jul 10 14:57:11 2021


         ------------------------------------------------------------
                                   SCF GRAD                          
                          Rob Parrish, Justin Turney,                
                       Andy Simmonett, and Alex Sokolov              
         ------------------------------------------------------------

  ==> Geometry <==

    Molecular point group: c1
    Full point group: C1

    Geometry (in Angstrom), charge = 0, multiplicity = 1:

       Center              X                  Y                   Z               Mass       
    ------------   -----------------  -----------------  -----------------  -----------------
         CR          -0.000863039547     0.057434282916    -0.012641096912    51.940506230000
         O            1.009614551777     0.800803136960    -0.915486614199    15.994914619570
         O           -1.037903332307     1.081829599842     0.501123643968    15.994914619570
         F           -0.779593289607    -1.124044728048    -0.903809112063    18.998403162730
         F            0.805769349562    -0.617981448115     1.287224772888    18.998403162730

  Nuclear repulsion =  355.265188538787584

  ==> Basis Set <==

  Basis Set: DEF2-SVP
    Blend: DEF2-SVP
    Number of shells: 35
    Number of basis function: 87
    Number of Cartesian functions: 96
    Spherical Harmonics?: true
    Max angular momentum: 3

  ==> DFJKGrad: Density-Fitted SCF Gradients <==

    Gradient:                    1
    J tasked:                  Yes
    K tasked:                   No
    wK tasked:                  No
    OpenMP threads:              4
    Integrals threads:           4
    Memory [MiB]:             5722
    Schwarz Cutoff:          0E+00
    Fitting Condition:       1E-10

   => Auxiliary Basis Set <=

  Basis Set: (DEF2-SVP AUX)
    Blend: DEF2-SVP-JKFIT
    Number of shells: 158
    Number of basis function: 572
    Number of Cartesian functions: 749
    Spherical Harmonics?: true
    Max angular momentum: 6

  ==> DFT Potential <==

   => Composite Functional: MY LDA <= 

    Slater exchange
    Perdew & Wang
    P. A. M. Dirac, Math. Proc. Cambridge Philos. Soc. 26, 376 (1930)
    F. Bloch, Z. Phys. 57, 545 (1929)
    J. P. Perdew and Y. Wang, Phys. Rev. B 45, 13244 (1992)

    Deriv               =              1
    GGA                 =          FALSE
    Meta                =          FALSE

    Exchange Hybrid     =          FALSE
    MP2 Hybrid          =          FALSE

   => Exchange Functionals <=

    1.0000         XC_lda_x

   => Correlation Functionals <=

    1.0000      XC_lda_c_pw

   => Molecular Quadrature <=

    Radial Scheme          =       TREUTLER
    Pruning Scheme         =           FLAT
    Nuclear Scheme         =       TREUTLER

    BS radius alpha        =              1
    Pruning alpha          =              1
    Radial Points          =             75
    Spherical Points       =            302
    Total Points           =         113250
    Total Blocks           =            920
    Max Points             =            255
    Max Functions          =             84


  -Total Gradient:
     Atom            X                  Y                   Z
    ------   -----------------  -----------------  -----------------
       1        0.000127370147    -0.008473013780     0.001864899972
       2        0.003489174255     0.002688233817    -0.003145557990
       3       -0.003584603546     0.003659191399     0.001748536301
       4        0.000751588818     0.001255022490     0.000837330367
       5       -0.000781950243     0.000765518259    -0.001282088464


*** tstop() called on thinkpad at Sat Jul 10 14:57:13 2021
Module time:
	user time   =       3.13 seconds =       0.05 minutes
	system time =       0.06 seconds =       0.00 minutes
	total time  =          2 seconds =       0.03 minutes
Total time:
	user time   =      32.88 seconds =       0.55 minutes
	system time =       0.42 seconds =       0.01 minutes
	total time  =         16 seconds =       0.27 minutes

			-----------------------------------------
			 OPTKING 2.0: for geometry optimizations 
			  - R.A. King,  Bethel University        
			-----------------------------------------

	Previous internal coordinate definitions found.
	---Fragment 1 Geometry and Gradient---
	 CR         -0.0016309084        0.1085350649       -0.0238882111
	 O           1.9078949951        1.5132986093       -1.7300189724
	 O          -1.9613530428        2.0443616581        0.9469864421
	 F          -1.4732178066       -2.1241366888       -1.7079516915
	 F           1.5226833910       -1.1678156876        2.4325022827
	             0.0001273701       -0.0084730138        0.0018649000
	             0.0034891743        0.0026882338       -0.0031455580
	            -0.0035846035        0.0036591914        0.0017485363
	             0.0007515888        0.0012550225        0.0008373304
	            -0.0007819502        0.0007655183       -0.0012820885

	---Fragment 1 Intrafragment Coordinates---
	 - Coordinate -           - BOHR/RAD -       - ANG/DEG -
	 R(1,2)           =         2.920707	       1.545572
	 R(1,3)           =         2.920708	       1.545572
	 R(1,4)           =         3.160136	       1.672272
	 R(1,5)           =         3.160136	       1.672272
	 B(2,1,3)         =         1.890275	     108.304795
	 B(2,1,4)         =         1.910239	     109.448609
	 B(2,1,5)         =         1.910239	     109.448611
	 B(3,1,4)         =         1.910239	     109.448620
	 B(3,1,5)         =         1.910239	     109.448624
	 B(4,1,5)         =         1.932106	     110.701495

	Current energy   :     -1389.7929998774

	Energy change for the previous step:
		Projected    :        -0.0000832842
		Actual       :        -0.0000536414

	Performing BFGS update.
	Previous computed or guess Hessian on step 1.
	Steps to be used in Hessian update: 2 1
	Taking RFO optimization step.
	Going to follow RFO solution 1.
	Using RFO vector 1.
	Norm of target step-size    0.01027
	Projected energy change by RFO approximation:        -0.0000630657

	Back-transformation to cartesian coordinates...
	Successfully converged to displaced geometry.

	--- Internal Coordinate Step in ANG or DEG, aJ/ANG or AJ/DEG ---
	 ---------------------------------------------------------------------------
	   Coordinate                Previous        Force       Change         New 
	   ----------                --------       ------       ------       ------
	    1 R(1,2)          =      1.545572    -0.044689    -0.002921     1.542651
	    2 R(1,3)          =      1.545572    -0.044689    -0.002921     1.542651
	    3 R(1,4)          =      1.672272     0.013966     0.001890     1.674162
	    4 R(1,5)          =      1.672272     0.013966     0.001890     1.674162
	    5 B(2,1,3)        =    108.304795     0.000026    -0.027329   108.277466
	    6 B(2,1,4)        =    109.448609     0.000000     0.061666   109.510275
	    7 B(2,1,5)        =    109.448611     0.000000     0.061675   109.510286
	    8 B(3,1,4)        =    109.448620     0.000000     0.061600   109.510220
	    9 B(3,1,5)        =    109.448624     0.000000     0.061595   109.510219
	   10 B(4,1,5)        =    110.701495    -0.000027    -0.215149   110.486346
	 ---------------------------------------------------------------------------
	Successfully symmetrized geometry.

  ==> Convergence Check <==

  Measures of convergence in internal coordinates in au.
  Criteria marked as inactive (o), active & met (*), and active & unmet ( ).
  ---------------------------------------------------------------------------------------------
   Step     Total Energy     Delta E     MAX Force     RMS Force      MAX Disp      RMS Disp   
  ---------------------------------------------------------------------------------------------
    Convergence Criteria             o    2.00e-06 *    1.00e-06 *    6.00e-06 *    4.00e-06 *
  ---------------------------------------------------------------------------------------------
      3   -1389.79299988   -5.36e-05 o    5.42e-03      2.55e-03      5.52e-03      3.25e-03    ~
  ---------------------------------------------------------------------------------------------

	Writing optimization data to binary file.
	Structure for next step:
	Cartesian Geometry (in Angstrom)
	   CR    -0.0008924092   0.0594149984  -0.0130773250
	    O     1.0074949145   0.8016949329  -0.9141589948
	    O    -1.0358014994   1.0821411341   0.4995309203
	    F    -0.7794344378  -1.1255935680  -0.9032716056
	    F     0.8056576718  -0.6196166545   1.2873885988
			--------------------------
			 OPTKING Finished Execution 
			--------------------------

    Structure for next step:
    Molecular point group: c1
    Full point group: C1

    Geometry (in Angstrom), charge = 0, multiplicity = 1:

    CR          -0.000884912756     0.058909494044    -0.012965996023
    O            1.007502414904     0.801189431416    -0.914047669334
    O           -1.035794006952     1.081635633721     0.499642251330
    F           -0.779426944423    -1.126099077073    -0.903160280089
    F            0.805665171473    -0.620122161559     1.287499932928

gradient() will perform analytic gradient computation.

*** tstart() called on thinkpad
*** at Sat Jul 10 14:57:13 2021

   => Loading Basis Set <=

    Name: DEF2-SVP
    Role: ORBITAL
    Keyword: BASIS
    atoms 1   entry CR         line   614 file /usr/share/psi4/basis/def2-svp.gbs 
    atoms 2-3 entry O          line   130 file /usr/share/psi4/basis/def2-svp.gbs 
    atoms 4-5 entry F          line   150 file /usr/share/psi4/basis/def2-svp.gbs 


         ---------------------------------------------------------
                                   SCF
               by Justin Turney, Rob Parrish, Andy Simmonett
                          and Daniel G. A. Smith
                              RKS Reference
                        4 Threads,   7629 MiB Core
         ---------------------------------------------------------

  ==> Geometry <==

    Molecular point group: c1
    Full point group: C1

    Geometry (in Angstrom), charge = 0, multiplicity = 1:

       Center              X                  Y                   Z               Mass       
    ------------   -----------------  -----------------  -----------------  -----------------
         CR          -0.000884912756     0.058909494044    -0.012965996023    51.940506230000
         O            1.007502414904     0.801189431416    -0.914047669334    15.994914619570
         O           -1.035794006952     1.081635633721     0.499642251330    15.994914619570
         F           -0.779426944423    -1.126099077073    -0.903160280089    18.998403162730
         F            0.805665171473    -0.620122161559     1.287499932928    18.998403162730

  Running in c1 symmetry.

  Rotational constants: A =      0.15284  B =      0.13830  C =      0.12753 [cm^-1]
  Rotational constants: A =   4581.96044  B =   4146.27927  C =   3823.38543 [MHz]
  Nuclear repulsion =  355.385178539266121

  Charge       = 0
  Multiplicity = 1
  Electrons    = 58
  Nalpha       = 29
  Nbeta        = 29

  ==> Algorithm <==

  SCF Algorithm Type is DF.
  DIIS enabled.
  MOM disabled.
  Fractional occupation disabled.
  Guess Type is READ.
  Energy threshold   = 1.00e-08
  Density threshold  = 1.00e-08
  Integral threshold = 0.00e+00

  ==> Primary Basis <==

  Basis Set: DEF2-SVP
    Blend: DEF2-SVP
    Number of shells: 35
    Number of basis function: 87
    Number of Cartesian functions: 96
    Spherical Harmonics?: true
    Max angular momentum: 3

  ==> DFT Potential <==

   => Composite Functional: MY LDA <= 

    Slater exchange
    Perdew & Wang
    P. A. M. Dirac, Math. Proc. Cambridge Philos. Soc. 26, 376 (1930)
    F. Bloch, Z. Phys. 57, 545 (1929)
    J. P. Perdew and Y. Wang, Phys. Rev. B 45, 13244 (1992)

    Deriv               =              1
    GGA                 =          FALSE
    Meta                =          FALSE

    Exchange Hybrid     =          FALSE
    MP2 Hybrid          =          FALSE

   => Exchange Functionals <=

    1.0000         XC_lda_x

   => Correlation Functionals <=

    1.0000      XC_lda_c_pw

   => Molecular Quadrature <=

    Radial Scheme          =       TREUTLER
    Pruning Scheme         =           FLAT
    Nuclear Scheme         =       TREUTLER

    BS radius alpha        =              1
    Pruning alpha          =              1
    Radial Points          =             75
    Spherical Points       =            302
    Total Points           =         113250
    Total Blocks           =            923
    Max Points             =            254
    Max Functions          =             84

   => Loading Basis Set <=

    Name: (DEF2-SVP AUX)
    Role: JKFIT
    Keyword: DF_BASIS_SCF
    atoms 1   entry CR         line  1731 file /usr/share/psi4/basis/def2-svp-jkfit.gbs 
    atoms 2-3 entry O          line   323 file /usr/share/psi4/basis/def2-svp-jkfit.gbs 
    atoms 4-5 entry F          line   383 file /usr/share/psi4/basis/def2-svp-jkfit.gbs 

   => Loading Basis Set <=

    Name: DEF2-SVP
    Role: ORBITAL
    Keyword: BASIS
    atoms 1   entry CR         line   614 file /usr/share/psi4/basis/def2-svp.gbs 
    atoms 2-3 entry O          line   130 file /usr/share/psi4/basis/def2-svp.gbs 
    atoms 4-5 entry F          line   150 file /usr/share/psi4/basis/def2-svp.gbs 

  Reading orbitals from file 180, no projection.

  ==> Pre-Iterations <==

   -------------------------------------------------------
    Irrep   Nso     Nmo     Nalpha   Nbeta   Ndocc  Nsocc
   -------------------------------------------------------
     A         87      87       0       0       0       0
   -------------------------------------------------------
    Total      87      87      29      29      29       0
   -------------------------------------------------------

  ==> Integral Setup <==

  DFHelper Memory: AOs need 0.037 GiB; user supplied 5.535 GiB. Using in-core AOs.

  ==> MemDFJK: Density-Fitted J/K Matrices <==

    J tasked:                   Yes
    K tasked:                    No
    wK tasked:                   No
    OpenMP threads:               4
    Memory [MiB]:              5668
    Algorithm:                 Core
    Schwarz Cutoff:           1E-12
    Mask sparsity (%):       0.9512
    Fitting Condition:        1E-10

   => Auxiliary Basis Set <=

  Basis Set: (DEF2-SVP AUX)
    Blend: DEF2-SVP-JKFIT
    Number of shells: 158
    Number of basis function: 572
    Number of Cartesian functions: 749
    Spherical Harmonics?: true
    Max angular momentum: 6

  Cached 100.0% of DFT collocation blocks in 0.053 [GiB].

  Minimum eigenvalue in the overlap matrix is 1.8257040516E-02.
  Using Symmetric Orthogonalization.

  SCF Guess: Orbitals guess was supplied from a previous computation.

  ==> Iterations <==

                           Total Energy        Delta E     RMS |[F,P]|

   @DF-RKS iter   0: -1389.79358856365479   -1.38979e+03   2.38483e-04 
   @DF-RKS iter   1: -1389.79302721892122    5.61345e-04   8.40449e-05 DIIS
   @DF-RKS iter   2: -1389.79204757900561    9.79640e-04   6.30424e-04 DIIS
   @DF-RKS iter   3: -1389.79301282705160   -9.65248e-04   1.15242e-04 DIIS
   @DF-RKS iter   4: -1389.79304763377081   -3.48067e-05   1.26436e-05 DIIS
   @DF-RKS iter   5: -1389.79304799290685   -3.59136e-07   2.54037e-06 DIIS
   @DF-RKS iter   6: -1389.79304801359717   -2.06903e-08   3.44342e-07 DIIS
   @DF-RKS iter   7: -1389.79304801343642    1.60753e-10   3.99725e-07 DIIS
   @DF-RKS iter   8: -1389.79304801389890   -4.62478e-10   9.68694e-08 DIIS
   @DF-RKS iter   9: -1389.79304801391891   -2.00089e-11   1.45779e-08 DIIS
   @DF-RKS iter  10: -1389.79304801392368   -4.77485e-12   9.79219e-09 DIIS
  Energy and wave function converged.


  ==> Post-Iterations <==

    Orbital Energies [Eh]
    ---------------------

    Doubly Occupied:                                                      

       1A   -214.154375     2A    -24.444811     3A    -24.144061  
       4A    -24.144058     5A    -20.866932     6A    -20.866356  
       7A    -20.862373     8A    -18.698394     9A    -18.698387  
      10A     -2.900227    11A     -1.908471    12A     -1.908042  
      13A     -1.903080    14A     -1.075004    15A     -1.069135  
      16A     -0.880652    17A     -0.869785    18A     -0.485839  
      19A     -0.478891    20A     -0.464543    21A     -0.463655  
      22A     -0.460316    23A     -0.421608    24A     -0.413057  
      25A     -0.396002    26A     -0.378496    27A     -0.366504  
      28A     -0.365399    29A     -0.323796  

    Virtual:                                                              

      30A     -0.214796    31A     -0.200509    32A     -0.169456  
      33A     -0.136564    34A     -0.113005    35A     -0.009193  
      36A      0.137622    37A      0.185327    38A      0.185498  
      39A      0.189129    40A      0.520382    41A      0.524432  
      42A      0.541405    43A      0.576892    44A      0.587764  
      45A      0.842552    46A      0.863532    47A      0.901838  
      48A      0.919255    49A      0.928980    50A      0.958854  
      51A      1.049482    52A      1.073806    53A      1.123570  
      54A      1.139749    55A      1.157876    56A      1.164205  
      57A      1.276292    58A      1.345889    59A      1.588870  
      60A      1.602884    61A      2.143492    62A      2.228447  
      63A      2.269450    64A      2.325710    65A      2.452034  
      66A      2.457062    67A      2.477017    68A      2.479916  
      69A      2.484188    70A      2.522304    71A      2.614515  
      72A      2.689326    73A      2.769618    74A      2.831018  
      75A      2.907045    76A      2.939622    77A      2.956879  
      78A      2.967655    79A      3.132280    80A      3.140924  
      81A      3.192577    82A      3.195987    83A      3.206594  
      84A      3.213482    85A      3.237568    86A      3.297351  
      87A      3.434795  

    Final Occupation by Irrep:
              A 
    DOCC [    29 ]

  @DF-RKS Final Energy: -1389.79304801392368

   => Energetics <=

    Nuclear Repulsion Energy =            355.3851785392661213
    One-Electron Energy =               -2625.9482044233782290
    Two-Electron Energy =                 962.6523040328931984
    DFT Exchange-Correlation Energy =     -81.8823261627049703
    Empirical Dispersion Energy =           0.0000000000000000
    VV10 Nonlocal Energy =                  0.0000000000000000
    Total Energy =                      -1389.7930480139236806

Computation Completed


Properties will be evaluated at   0.000000,   0.000000,   0.000000 [a0]

Properties computed using the SCF density matrix

  Nuclear Dipole Moment: [e a0]
     X:    -0.0216      Y:     1.4370      Z:    -0.3163

  Electronic Dipole Moment: [e a0]
     X:     0.0237      Y:    -1.5802      Z:     0.3478

  Dipole Moment: [e a0]
     X:     0.0022      Y:    -0.1432      Z:     0.0315     Total:     0.1466

  Dipole Moment: [D]
     X:     0.0055      Y:    -0.3639      Z:     0.0801     Total:     0.3726


*** tstop() called on thinkpad at Sat Jul 10 14:57:15 2021
Module time:
	user time   =       5.70 seconds =       0.10 minutes
	system time =       0.05 seconds =       0.00 minutes
	total time  =          2 seconds =       0.03 minutes
Total time:
	user time   =      38.66 seconds =       0.64 minutes
	system time =       0.48 seconds =       0.01 minutes
	total time  =         18 seconds =       0.30 minutes

*** tstart() called on thinkpad
*** at Sat Jul 10 14:57:15 2021


         ------------------------------------------------------------
                                   SCF GRAD                          
                          Rob Parrish, Justin Turney,                
                       Andy Simmonett, and Alex Sokolov              
         ------------------------------------------------------------

  ==> Geometry <==

    Molecular point group: c1
    Full point group: C1

    Geometry (in Angstrom), charge = 0, multiplicity = 1:

       Center              X                  Y                   Z               Mass       
    ------------   -----------------  -----------------  -----------------  -----------------
         CR          -0.000884912756     0.058909494044    -0.012965996023    51.940506230000
         O            1.007502414904     0.801189431416    -0.914047669334    15.994914619570
         O           -1.035794006952     1.081635633721     0.499642251330    15.994914619570
         F           -0.779426944423    -1.126099077073    -0.903160280089    18.998403162730
         F            0.805665171473    -0.620122161559     1.287499932928    18.998403162730

  Nuclear repulsion =  355.385178539266121

  ==> Basis Set <==

  Basis Set: DEF2-SVP
    Blend: DEF2-SVP
    Number of shells: 35
    Number of basis function: 87
    Number of Cartesian functions: 96
    Spherical Harmonics?: true
    Max angular momentum: 3

  ==> DFJKGrad: Density-Fitted SCF Gradients <==

    Gradient:                    1
    J tasked:                  Yes
    K tasked:                   No
    wK tasked:                  No
    OpenMP threads:              4
    Integrals threads:           4
    Memory [MiB]:             5722
    Schwarz Cutoff:          0E+00
    Fitting Condition:       1E-10

   => Auxiliary Basis Set <=

  Basis Set: (DEF2-SVP AUX)
    Blend: DEF2-SVP-JKFIT
    Number of shells: 158
    Number of basis function: 572
    Number of Cartesian functions: 749
    Spherical Harmonics?: true
    Max angular momentum: 6

  ==> DFT Potential <==

   => Composite Functional: MY LDA <= 

    Slater exchange
    Perdew & Wang
    P. A. M. Dirac, Math. Proc. Cambridge Philos. Soc. 26, 376 (1930)
    F. Bloch, Z. Phys. 57, 545 (1929)
    J. P. Perdew and Y. Wang, Phys. Rev. B 45, 13244 (1992)

    Deriv               =              1
    GGA                 =          FALSE
    Meta                =          FALSE

    Exchange Hybrid     =          FALSE
    MP2 Hybrid          =          FALSE

   => Exchange Functionals <=

    1.0000         XC_lda_x

   => Correlation Functionals <=

    1.0000      XC_lda_c_pw

   => Molecular Quadrature <=

    Radial Scheme          =       TREUTLER
    Pruning Scheme         =           FLAT
    Nuclear Scheme         =       TREUTLER

    BS radius alpha        =              1
    Pruning alpha          =              1
    Radial Points          =             75
    Spherical Points       =            302
    Total Points           =         113250
    Total Blocks           =            923
    Max Points             =            254
    Max Functions          =             84


  -Total Gradient:
     Atom            X                  Y                   Z
    ------   -----------------  -----------------  -----------------
       1        0.000049366204    -0.003273069444     0.000720331902
       2        0.001305545345     0.001170450925    -0.001215008179
       3       -0.001346263888     0.001534380294     0.000619716845
       4        0.000293593043     0.000326323458     0.000359699395
       5       -0.000300661715     0.000136655512    -0.000461570741


*** tstop() called on thinkpad at Sat Jul 10 14:57:17 2021
Module time:
	user time   =       3.23 seconds =       0.05 minutes
	system time =       0.06 seconds =       0.00 minutes
	total time  =          2 seconds =       0.03 minutes
Total time:
	user time   =      41.89 seconds =       0.70 minutes
	system time =       0.54 seconds =       0.01 minutes
	total time  =         20 seconds =       0.33 minutes

			-----------------------------------------
			 OPTKING 2.0: for geometry optimizations 
			  - R.A. King,  Bethel University        
			-----------------------------------------

	Previous internal coordinate definitions found.
	---Fragment 1 Geometry and Gradient---
	 CR         -0.0016722428        0.1113228099       -0.0245021814
	 O           1.9039036349        1.5140286000       -1.7272997607
	 O          -1.9573669955        2.0439951153        0.9441870157
	 F          -1.4729034598       -2.1280188458       -1.7067255768
	 F           1.5224865229       -1.1718610497        2.4330222598
	             0.0000493662       -0.0032730694        0.0007203319
	             0.0013055453        0.0011704509       -0.0012150082
	            -0.0013462639        0.0015343803        0.0006197168
	             0.0002935930        0.0003263235        0.0003596994
	            -0.0003006617        0.0001366555       -0.0004615707

	---Fragment 1 Intrafragment Coordinates---
	 - Coordinate -           - BOHR/RAD -       - ANG/DEG -
	 R(1,2)           =         2.915188	       1.542651
	 R(1,3)           =         2.915188	       1.542651
	 R(1,4)           =         3.163708	       1.674162
	 R(1,5)           =         3.163708	       1.674162
	 B(2,1,3)         =         1.889798	     108.277466
	 B(2,1,4)         =         1.911315	     109.510275
	 B(2,1,5)         =         1.911315	     109.510286
	 B(3,1,4)         =         1.911314	     109.510220
	 B(3,1,5)         =         1.911314	     109.510219
	 B(4,1,5)         =         1.928351	     110.486346

	Current energy   :     -1389.7930480139

	Energy change for the previous step:
		Projected    :        -0.0000630657
		Actual       :        -0.0000481366
	Energy ratio indicates good step: Trust radius increased to 1.000e+00.


	Performing BFGS update.
	Previous computed or guess Hessian on step 1.
	Steps to be used in Hessian update: 3 2
	Taking RFO optimization step.
	Going to follow RFO solution 1.
	Using RFO vector 1.
	Norm of target step-size    0.00568
	Projected energy change by RFO approximation:        -0.0000148334

	Back-transformation to cartesian coordinates...
	Successfully converged to displaced geometry.

	--- Internal Coordinate Step in ANG or DEG, aJ/ANG or AJ/DEG ---
	 ---------------------------------------------------------------------------
	   Coordinate                Previous        Force       Change         New 
	   ----------                --------       ------       ------       ------
	    1 R(1,2)          =      1.542651    -0.017622    -0.001766     1.540885
	    2 R(1,3)          =      1.542651    -0.017622    -0.001766     1.540885
	    3 R(1,4)          =      1.674162     0.004705     0.001083     1.675245
	    4 R(1,5)          =      1.674162     0.004705     0.001083     1.675245
	    5 B(2,1,3)        =    108.277466     0.000032     0.062020   108.339486
	    6 B(2,1,4)        =    109.510275    -0.000010    -0.006172   109.504103
	    7 B(2,1,5)        =    109.510286    -0.000010    -0.006182   109.504104
	    8 B(3,1,4)        =    109.510220    -0.000010    -0.006139   109.504081
	    9 B(3,1,5)        =    109.510219    -0.000010    -0.006142   109.504077
	   10 B(4,1,5)        =    110.486346     0.000009    -0.035455   110.450891
	 ---------------------------------------------------------------------------
	Successfully symmetrized geometry.

  ==> Convergence Check <==

  Measures of convergence in internal coordinates in au.
  Criteria marked as inactive (o), active & met (*), and active & unmet ( ).
[...]
  Integral threshold = 0.00e+00

  ==> Primary Basis <==

  Basis Set: DEF2-SVP
    Blend: DEF2-SVP
    Number of shells: 35
    Number of basis function: 87
    Number of Cartesian functions: 96
    Spherical Harmonics?: true
    Max angular momentum: 3

  ==> DFT Potential <==

   => Composite Functional: MY LDA <= 

    Slater exchange
    Perdew & Wang
    P. A. M. Dirac, Math. Proc. Cambridge Philos. Soc. 26, 376 (1930)
    F. Bloch, Z. Phys. 57, 545 (1929)
    J. P. Perdew and Y. Wang, Phys. Rev. B 45, 13244 (1992)

    Deriv               =              1
    GGA                 =          FALSE
    Meta                =          FALSE

    Exchange Hybrid     =          FALSE
    MP2 Hybrid          =          FALSE

   => Exchange Functionals <=

    1.0000         XC_lda_x

   => Correlation Functionals <=

    1.0000      XC_lda_c_pw

   => Molecular Quadrature <=

    Radial Scheme          =       TREUTLER
    Pruning Scheme         =           FLAT
    Nuclear Scheme         =       TREUTLER

    BS radius alpha        =              1
    Pruning alpha          =              1
    Radial Points          =             75
    Spherical Points       =            302
    Total Points           =         113250
    Total Blocks           =            922
    Max Points             =            256
    Max Functions          =             84

   => Loading Basis Set <=

    Name: (DEF2-SVP AUX)
    Role: JKFIT
    Keyword: DF_BASIS_SCF
    atoms 1   entry CR         line  1731 file /usr/share/psi4/basis/def2-svp-jkfit.gbs 
    atoms 2-3 entry O          line   323 file /usr/share/psi4/basis/def2-svp-jkfit.gbs 
    atoms 4-5 entry F          line   383 file /usr/share/psi4/basis/def2-svp-jkfit.gbs 

   => Loading Basis Set <=

    Name: DEF2-SVP
    Role: ORBITAL
    Keyword: BASIS
    atoms 1   entry CR         line   614 file /usr/share/psi4/basis/def2-svp.gbs 
    atoms 2-3 entry O          line   130 file /usr/share/psi4/basis/def2-svp.gbs 
    atoms 4-5 entry F          line   150 file /usr/share/psi4/basis/def2-svp.gbs 

  Reading orbitals from file 180, no projection.

  ==> Pre-Iterations <==

   -------------------------------------------------------
    Irrep   Nso     Nmo     Nalpha   Nbeta   Ndocc  Nsocc
   -------------------------------------------------------
     A         87      87       0       0       0       0
   -------------------------------------------------------
    Total      87      87      29      29      29       0
   -------------------------------------------------------

  ==> Integral Setup <==

  DFHelper Memory: AOs need 0.037 GiB; user supplied 5.535 GiB. Using in-core AOs.

  ==> MemDFJK: Density-Fitted J/K Matrices <==

    J tasked:                   Yes
    K tasked:                    No
    wK tasked:                   No
    OpenMP threads:               4
    Memory [MiB]:              5668
    Algorithm:                 Core
    Schwarz Cutoff:           1E-12
    Mask sparsity (%):       0.9512
    Fitting Condition:        1E-10

   => Auxiliary Basis Set <=

  Basis Set: (DEF2-SVP AUX)
    Blend: DEF2-SVP-JKFIT
    Number of shells: 158
    Number of basis function: 572
    Number of Cartesian functions: 749
    Spherical Harmonics?: true
    Max angular momentum: 6

  Cached 100.0% of DFT collocation blocks in 0.053 [GiB].

  Minimum eigenvalue in the overlap matrix is 1.8267214829E-02.
  Using Symmetric Orthogonalization.

  SCF Guess: Orbitals guess was supplied from a previous computation.

  ==> Iterations <==

                           Total Energy        Delta E     RMS |[F,P]|

   @DF-RKS iter   0: -1389.79305681240044   -1.38979e+03   6.94955e-08 
   @DF-RKS iter   1: -1389.79305609739117    7.15009e-07   2.39215e-08 DIIS
   @DF-RKS iter   2: -1389.79305609730659    8.45830e-11   1.85367e-07 DIIS
   @DF-RKS iter   3: -1389.79305609739185   -8.52651e-11   2.96374e-08 DIIS
   @DF-RKS iter   4: -1389.79305609739163    2.27374e-13   7.00420e-09 DIIS
  Energy and wave function converged.


  ==> Post-Iterations <==

    Orbital Energies [Eh]
    ---------------------

    Doubly Occupied:                                                      

       1A   -214.154077     2A    -24.444589     3A    -24.143681  
       4A    -24.143678     5A    -20.866688     6A    -20.866127  
       7A    -20.862147     8A    -18.698513     9A    -18.698506  
      10A     -2.900233    11A     -1.908488    12A     -1.908341  
      13A     -1.902918    14A     -1.074573    15A     -1.068704  
      16A     -0.881006    17A     -0.870063    18A     -0.485503  
      19A     -0.478701    20A     -0.464475    21A     -0.463715  
      22A     -0.460412    23A     -0.421764    24A     -0.412832  
      25A     -0.395900    26A     -0.378629    27A     -0.366732  
      28A     -0.365522    29A     -0.324095  

    Virtual:                                                              

      30A     -0.214683    31A     -0.200196    32A     -0.169500  
      33A     -0.136053    34A     -0.112446    35A     -0.009144  
      36A      0.137592    37A      0.185572    38A      0.185625  
      39A      0.188977    40A      0.520299    41A      0.524497  
      42A      0.541660    43A      0.577187    44A      0.587913  
      45A      0.842439    46A      0.863334    47A      0.901680  
      48A      0.919057    49A      0.929136    50A      0.958877  
      51A      1.049377    52A      1.073963    53A      1.123874  
      54A      1.139326    55A      1.157942    56A      1.164592  
      57A      1.275905    58A      1.345359    59A      1.589341  
      60A      1.602815    61A      2.141831    62A      2.227383  
      63A      2.268442    64A      2.327311    65A      2.452500  
      66A      2.457245    67A      2.476833    68A      2.480728  
      69A      2.483845    70A      2.522447    71A      2.615806  
      72A      2.689499    73A      2.770313    74A      2.831642  
      75A      2.907774    76A      2.939992    77A      2.957248  
      78A      2.967936    79A      3.134651    80A      3.141313  
      81A      3.191974    82A      3.195380    83A      3.206676  
      84A      3.213585    85A      3.240470    86A      3.298715  
      87A      3.435276  

    Final Occupation by Irrep:
              A 
    DOCC [    29 ]

  @DF-RKS Final Energy: -1389.79305609739163

   => Energetics <=

    Nuclear Repulsion Energy =            355.4801331933097117
    One-Electron Energy =               -2626.1400591379447178
    Two-Electron Energy =                 962.7511754110812490
    DFT Exchange-Correlation Energy =     -81.8843055638381685
    Empirical Dispersion Energy =           0.0000000000000000
    VV10 Nonlocal Energy =                  0.0000000000000000
    Total Energy =                      -1389.7930560973916272

Computation Completed


Properties will be evaluated at   0.000000,   0.000000,   0.000000 [a0]

Properties computed using the SCF density matrix

  Nuclear Dipole Moment: [e a0]
     X:    -0.0216      Y:     1.4343      Z:    -0.3157

  Electronic Dipole Moment: [e a0]
     X:     0.0236      Y:    -1.5727      Z:     0.3461

  Dipole Moment: [e a0]
     X:     0.0021      Y:    -0.1384      Z:     0.0305     Total:     0.1417

  Dipole Moment: [D]
     X:     0.0053      Y:    -0.3517      Z:     0.0774     Total:     0.3602


*** tstop() called on thinkpad at Sat Jul 10 14:57:54 2021
Module time:
	user time   =       3.90 seconds =       0.06 minutes
	system time =       0.02 seconds =       0.00 minutes
	total time  =          2 seconds =       0.03 minutes
Total time:
	user time   =     114.38 seconds =       1.91 minutes
	system time =       1.42 seconds =       0.02 minutes
	total time  =         57 seconds =       0.95 minutes

*** tstart() called on thinkpad
*** at Sat Jul 10 14:57:54 2021


         ------------------------------------------------------------
                                   SCF GRAD                          
                          Rob Parrish, Justin Turney,                
                       Andy Simmonett, and Alex Sokolov              
         ------------------------------------------------------------

  ==> Geometry <==

    Molecular point group: c1
    Full point group: C1

    Geometry (in Angstrom), charge = 0, multiplicity = 1:

       Center              X                  Y                   Z               Mass       
    ------------   -----------------  -----------------  -----------------  -----------------
         CR          -0.000889694109     0.059210409678    -0.013032090848    51.940506230000
         O            1.006732119143     0.799813234144    -0.913172326035    15.994914619570
         O           -1.034979075663     1.080042475123     0.499420560823    15.994914619570
         F           -0.780383048668    -1.125561745518    -0.904649446805    18.998403162730
         F            0.806596768628    -0.618982253033     1.288619483216    18.998403162730

  Nuclear repulsion =  355.480133193309712

  ==> Basis Set <==

  Basis Set: DEF2-SVP
    Blend: DEF2-SVP
    Number of shells: 35
    Number of basis function: 87
    Number of Cartesian functions: 96
    Spherical Harmonics?: true
    Max angular momentum: 3

  ==> DFJKGrad: Density-Fitted SCF Gradients <==

    Gradient:                    1
    J tasked:                  Yes
    K tasked:                   No
    wK tasked:                  No
    OpenMP threads:              4
    Integrals threads:           4
    Memory [MiB]:             5722
    Schwarz Cutoff:          0E+00
    Fitting Condition:       1E-10

   => Auxiliary Basis Set <=

  Basis Set: (DEF2-SVP AUX)
    Blend: DEF2-SVP-JKFIT
    Number of shells: 158
    Number of basis function: 572
    Number of Cartesian functions: 749
    Spherical Harmonics?: true
    Max angular momentum: 6

  ==> DFT Potential <==

   => Composite Functional: MY LDA <= 

    Slater exchange
    Perdew & Wang
    P. A. M. Dirac, Math. Proc. Cambridge Philos. Soc. 26, 376 (1930)
    F. Bloch, Z. Phys. 57, 545 (1929)
    J. P. Perdew and Y. Wang, Phys. Rev. B 45, 13244 (1992)

    Deriv               =              1
    GGA                 =          FALSE
    Meta                =          FALSE

    Exchange Hybrid     =          FALSE
    MP2 Hybrid          =          FALSE

   => Exchange Functionals <=

    1.0000         XC_lda_x

   => Correlation Functionals <=

    1.0000      XC_lda_c_pw

   => Molecular Quadrature <=

    Radial Scheme          =       TREUTLER
    Pruning Scheme         =           FLAT
    Nuclear Scheme         =       TREUTLER

    BS radius alpha        =              1
    Pruning alpha          =              1
    Radial Points          =             75
    Spherical Points       =            302
    Total Points           =         113250
    Total Blocks           =            922
    Max Points             =            256
    Max Functions          =             84


  -Total Gradient:
     Atom            X                  Y                   Z
    ------   -----------------  -----------------  -----------------
       1        0.000000395034    -0.000020647722     0.000004489110
       2        0.000001021544    -0.000020777799     0.000004057260
       3       -0.000000488010    -0.000020503323     0.000005085979
       4       -0.000000604459    -0.000022573708     0.000003602086
       5        0.000001275609    -0.000021973837     0.000006200939


*** tstop() called on thinkpad at Sat Jul 10 14:57:56 2021
Module time:
	user time   =       4.22 seconds =       0.07 minutes
	system time =       0.03 seconds =       0.00 minutes
	total time  =          2 seconds =       0.03 minutes
Total time:
	user time   =     118.60 seconds =       1.98 minutes
	system time =       1.45 seconds =       0.02 minutes
	total time  =         59 seconds =       0.98 minutes

			-----------------------------------------
			 OPTKING 2.0: for geometry optimizations 
			  - R.A. King,  Bethel University        
			-----------------------------------------

	Previous internal coordinate definitions found.
	---Fragment 1 Geometry and Gradient---
	 CR         -0.0016812782        0.1118914581       -0.0246270825
	 O           1.9024479869        1.5114279640       -1.7256456016
	 O          -1.9558269986        2.0409844818        0.9437680814
	 F          -1.4747102349       -2.1270034363       -1.7095396940
	 F           1.5242469864       -1.1697069348        2.4351379032
	             0.0000003950       -0.0000206477        0.0000044891
	             0.0000010215       -0.0000207778        0.0000040573
	            -0.0000004880       -0.0000205033        0.0000050860
	            -0.0000006045       -0.0000225737        0.0000036021
	             0.0000012756       -0.0000219738        0.0000062009

	---Fragment 1 Intrafragment Coordinates---
	 - Coordinate -           - BOHR/RAD -       - ANG/DEG -
	 R(1,2)           =         2.911679	       1.540794
	 R(1,3)           =         2.911679	       1.540794
	 R(1,4)           =         3.165659	       1.675194
	 R(1,5)           =         3.165659	       1.675194
	 B(2,1,3)         =         1.890984	     108.345416
	 B(2,1,4)         =         1.910602	     109.469404
	 B(2,1,5)         =         1.910601	     109.469402
	 B(3,1,4)         =         1.910601	     109.469400
	 B(3,1,5)         =         1.910601	     109.469398
	 B(4,1,5)         =         1.930006	     110.581172

	Current energy   :     -1389.7930560974

	Energy change for the previous step:
		Projected    :        -0.0000000000
		Actual       :         0.0000000016

	Performing BFGS update.
	Previous computed or guess Hessian on step 1.
	Denominators (dg)(dq) or (dq)(dq) are very small.
	 Skipping Hessian update for step 12.
	Denominators (dg)(dq) or (dq)(dq) are very small.
	 Skipping Hessian update for step 11.
	Denominators (dg)(dq) or (dq)(dq) are very small.
	 Skipping Hessian update for step 10.
	Denominators (dg)(dq) or (dq)(dq) are very small.
	 Skipping Hessian update for step 9.
	Denominators (dg)(dq) or (dq)(dq) are very small.
	 Skipping Hessian update for step 8.
	Denominators (dg)(dq) or (dq)(dq) are very small.
	 Skipping Hessian update for step 7.
	Steps to be used in Hessian update: 6 5
	Taking RFO optimization step.
	Going to follow RFO solution 1.
	Using RFO vector 1.
	Norm of target step-size    0.00000
	Projected energy change by RFO approximation:        -0.0000000000

	Back-transformation to cartesian coordinates...
	Successfully converged to displaced geometry.

	--- Internal Coordinate Step in ANG or DEG, aJ/ANG or AJ/DEG ---
	 ---------------------------------------------------------------------------
	   Coordinate                Previous        Force       Change         New 
	   ----------                --------       ------       ------       ------
	    1 R(1,2)          =      1.540794    -0.000009    -0.000000     1.540794
	    2 R(1,3)          =      1.540794    -0.000010    -0.000000     1.540794
	    3 R(1,4)          =      1.675194    -0.000016    -0.000001     1.675194
	    4 R(1,5)          =      1.675194    -0.000016    -0.000001     1.675194
	    5 B(2,1,3)        =    108.345416     0.000000     0.000006   108.345422
	    6 B(2,1,4)        =    109.469404     0.000000     0.000011   109.469415
	    7 B(2,1,5)        =    109.469402     0.000000     0.000010   109.469412
	    8 B(3,1,4)        =    109.469400     0.000000     0.000011   109.469411
	    9 B(3,1,5)        =    109.469398     0.000000     0.000010   109.469408
	   10 B(4,1,5)        =    110.581172    -0.000000    -0.000047   110.581125
	 ---------------------------------------------------------------------------
	Successfully symmetrized geometry.

  ==> Convergence Check <==

  Measures of convergence in internal coordinates in au.
  Criteria marked as inactive (o), active & met (*), and active & unmet ( ).
  ---------------------------------------------------------------------------------------------
   Step     Total Energy     Delta E     MAX Force     RMS Force      MAX Disp      RMS Disp   
  ---------------------------------------------------------------------------------------------
    Convergence Criteria             o    2.00e-06 *    1.00e-06 *    6.00e-06 *    4.00e-06 *
  ---------------------------------------------------------------------------------------------
     13   -1389.79305610    1.57e-09 o    1.91e-06 *    1.00e-06 *    1.50e-06 *    7.57e-07 *  ~
  ---------------------------------------------------------------------------------------------


  **** Optimization is complete! (in 13 steps) ****

  ==> Optimization Summary <==

  Measures of convergence in internal coordinates in au.
  --------------------------------------------------------------------------------------------------------------- ~
   Step         Total Energy             Delta E       MAX Force       RMS Force        MAX Disp        RMS Disp  ~
  --------------------------------------------------------------------------------------------------------------- ~
      1   -1389.792362006987  -1389.792362006987      0.01648831      0.00680150      0.06540376      0.02267460  ~
      2   -1389.792946235966     -0.000584228979      0.00673690      0.00339818      0.00956605      0.00358525  ~
      3   -1389.792999877363     -0.000053641397      0.00542430      0.00254627      0.00551930      0.00324647  ~
      4   -1389.793048013924     -0.000048136561      0.00213896      0.00100328      0.00333792      0.00179608  ~
      5   -1389.793055644130     -0.000007630206      0.00026643      0.00011260      0.00109444      0.00039925  ~
      6   -1389.793055968280     -0.000000324150      0.00014066      0.00006043      0.00119203      0.00042499  ~
      7   -1389.793056105459     -0.000000137180      0.00001413      0.00000735      0.00001078      0.00000515  ~
      8   -1389.793056103019      0.000000002440      0.00001014      0.00000530      0.00000768      0.00000371  ~
      9   -1389.793056101650      0.000000001369      0.00000724      0.00000377      0.00000554      0.00000270  ~
     10   -1389.793056100894      0.000000000756      0.00000519      0.00000271      0.00000397      0.00000196  ~
     11   -1389.793056098479      0.000000002415      0.00000374      0.00000195      0.00000291      0.00000142  ~
     12   -1389.793056098965     -0.000000000487      0.00000267      0.00000139      0.00000207      0.00000104  ~
     13   -1389.793056097392      0.000000001574      0.00000191      0.00000100      0.00000150      0.00000076  ~
  --------------------------------------------------------------------------------------------------------------- ~

	Writing optimization data to binary file.
	Final energy is  -1389.7930560973916
	Final (previous) structure:
	Cartesian Geometry (in Angstrom)
	   CR    -0.0008896941   0.0592104094  -0.0130320908
	    O     1.0067321152   0.7998132310  -0.9131723224
	    O    -1.0349790716   1.0800424709   0.4994205589
	    F    -0.7803830456  -1.1255617411  -0.9046494432
	    F     0.8065967655  -0.6189822506   1.2886194782
	Saving final (previous) structure.
			--------------------------
			 OPTKING Finished Execution 
			--------------------------

    Final optimized geometry and variables:
    Molecular point group: c1
    Full point group: C1

    Geometry (in Angstrom), charge = 0, multiplicity = 1:

    CR          -0.000889694109     0.059210409678    -0.013032090848
    O            1.006732119143     0.799813234144    -0.913172326035
    O           -1.034979075663     1.080042475123     0.499420560823
    F           -0.780383048668    -1.125561745518    -0.904649446805
    F            0.806596768628    -0.618982253033     1.288619483216

	Removing binary optimization data file.
	Cleaning optimization helper files.

    Psi4 stopped on: Saturday, 10 July 2021 02:57PM
    Psi4 wall time for execution: 0:00:59.65

*** Psi4 exiting successfully. Buy a developer a beer!
