
    -----------------------------------------------------------------------
          Psi4: An Open-Source Ab Initio Electronic Structure Package
                               Psi4 1.3.2 release

                         Git: Rev {} zzzzzzz 


    R. M. Parrish, L. A. Burns, D. G. A. Smith, A. C. Simmonett,
    A. E. DePrince III, E. G. Hohenstein, U. Bozkaya, A. Yu. Sokolov,
    R. Di Remigio, R. M. Richard, J. F. Gonthier, A. M. James,
    H. R. McAlexander, A. Kumar, M. Saitow, X. Wang, B. P. Pritchard,
    P. Verma, H. F. Schaefer III, K. Patkowski, R. A. King, E. F. Valeev,
    F. A. Evangelista, J. M. Turney, T. D. Crawford, and C. D. Sherrill,
    J. Chem. Theory Comput. 13(7) pp 3185--3197 (2017).
    (doi: 10.1021/acs.jctc.7b00174)


                         Additional Contributions by
    P. Kraus, H. Kruse, M. H. Lechner, M. C. Schieber, R. A. Shaw,
    A. Alenaizan, R. Galvelis, Z. L. Glick, S. Lehtola, and J. P. Misiewicz

    -----------------------------------------------------------------------


    Psi4 started on: Saturday, 10 July 2021 02:55PM

    Process ID: 1661950
    Host:       thinkpad
    PSIDATADIR: /usr/share/psi4
    Memory:     500.0 MiB
    Threads:    4
    
  ==> Input File <==

--------------------------------------------------------------------------
memory 8 gb

molecule {
symmetry c1
Cr        0.48028725377749    0.32716919378518    0.12128381663197
O         1.51332165941332    1.03448648135578   -0.78955553051410
O        -0.57831537187616    1.32157128739802    0.65757817076212
F        -0.29602430869141   -0.85637252313759   -0.76598418135575
F         1.28459076737678   -0.35182443940140    1.41848772447575
}

set basis STO-6G
set geom_maxiter 250

# Use a (75,302) quadrature grid
set dft_radial_points 75
set dft_spherical_points 302

# Very tight geometry optimization
set g_convergence gau_verytight
# Increase allowed number of geometry optimization steps
set geom_maxiter 250

# Use the Hueckel type guess
set guess huckel

my_dft = {
    "name": "my lda",
    "x_functionals": {"lda_x": {}},
    "c_functionals": {"lda_c_pw": {}}
}
optimize('scf', dft_functional=my_dft)
--------------------------------------------------------------------------

  Memory set to   7.451 GiB by Python driver.
gradient() will perform analytic gradient computation.

*** tstart() called on thinkpad
*** at Sat Jul 10 14:55:25 2021

   => Loading Basis Set <=

    Name: STO-6G
    Role: ORBITAL
    Keyword: BASIS
    atoms 1   entry CR         line   518 file /home/susi/dokumentit/tutkimus/linuxchemistry/suppinfo/psi4/transition_metals/sto-6g.gbs 
    atoms 2-3 entry O          line   115 file /home/susi/dokumentit/tutkimus/linuxchemistry/suppinfo/psi4/transition_metals/sto-6g.gbs 
    atoms 4-5 entry F          line   131 file /home/susi/dokumentit/tutkimus/linuxchemistry/suppinfo/psi4/transition_metals/sto-6g.gbs 


         ---------------------------------------------------------
                                   SCF
               by Justin Turney, Rob Parrish, Andy Simmonett
                          and Daniel G. A. Smith
                              RKS Reference
                        4 Threads,   7629 MiB Core
         ---------------------------------------------------------

  ==> Geometry <==

    Molecular point group: c1
    Full point group: C1

    Geometry (in Angstrom), charge = 0, multiplicity = 1:

       Center              X                  Y                   Z               Mass       
    ------------   -----------------  -----------------  -----------------  -----------------
         CR          -0.001007494106     0.066977222278    -0.014740872913    51.940506230000
         O            1.032026911530     0.774294509849    -0.925580220059    15.994914619570
         O           -1.059610119760     1.061379315891     0.521553481217    15.994914619570
         F           -0.777319056575    -1.116564494645    -0.902008870901    18.998403162730
         F            0.803296019493    -0.612016410908     1.282463034931    18.998403162730

  Running in c1 symmetry.

  Rotational constants: A =      0.15233  B =      0.13609  C =      0.12992 [cm^-1]
  Rotational constants: A =   4566.71939  B =   4079.72696  C =   3895.02954 [MHz]
  Nuclear repulsion =  355.181605515257786

  Charge       = 0
  Multiplicity = 1
  Electrons    = 58
  Nalpha       = 29
  Nbeta        = 29

  ==> Algorithm <==

  SCF Algorithm Type is DF.
  DIIS enabled.
  MOM disabled.
  Fractional occupation disabled.
  Guess Type is HUCKEL.
  Energy threshold   = 1.00e-08
  Density threshold  = 1.00e-08
  Integral threshold = 0.00e+00

  ==> Primary Basis <==

  Basis Set: STO-6G
    Blend: STO-6G
    Number of shells: 20
    Number of basis function: 38
    Number of Cartesian functions: 39
    Spherical Harmonics?: true
    Max angular momentum: 2

  ==> DFT Potential <==

   => Composite Functional: MY LDA <= 

    Slater exchange
    Perdew & Wang
    P. A. M. Dirac, Math. Proc. Cambridge Philos. Soc. 26, 376 (1930)
    F. Bloch, Z. Phys. 57, 545 (1929)
    J. P. Perdew and Y. Wang, Phys. Rev. B 45, 13244 (1992)

    Deriv               =              1
    GGA                 =          FALSE
    Meta                =          FALSE

    Exchange Hybrid     =          FALSE
    MP2 Hybrid          =          FALSE

   => Exchange Functionals <=

    1.0000         XC_lda_x

   => Correlation Functionals <=

    1.0000      XC_lda_c_pw

   => Molecular Quadrature <=

    Radial Scheme          =       TREUTLER
    Pruning Scheme         =           FLAT
    Nuclear Scheme         =       TREUTLER

    BS radius alpha        =              1
    Pruning alpha          =              1
    Radial Points          =             75
    Spherical Points       =            302
    Total Points           =         110936
    Total Blocks           =            901
    Max Points             =            256
    Max Functions          =             37

   => Loading Basis Set <=

    Name: (STO-6G AUX)
    Role: JKFIT
    Keyword: DF_BASIS_SCF
    atoms 1   entry CR         line  1731 file /usr/share/psi4/basis/def2-qzvpp-jkfit.gbs 
    atoms 2-3 entry O          line   323 file /usr/share/psi4/basis/def2-qzvpp-jkfit.gbs 
    atoms 4-5 entry F          line   383 file /usr/share/psi4/basis/def2-qzvpp-jkfit.gbs 

  ==> Pre-Iterations <==

   -------------------------------------------------------
    Irrep   Nso     Nmo     Nalpha   Nbeta   Ndocc  Nsocc
   -------------------------------------------------------
     A         38      38       0       0       0       0
   -------------------------------------------------------
    Total      38      38      29      29      29       0
   -------------------------------------------------------

  ==> Integral Setup <==

  DFHelper Memory: AOs need 0.009 GiB; user supplied 5.564 GiB. Using in-core AOs.

  ==> MemDFJK: Density-Fitted J/K Matrices <==

    J tasked:                   Yes
    K tasked:                    No
    wK tasked:                   No
    OpenMP threads:               4
    Memory [MiB]:              5697
    Algorithm:                 Core
    Schwarz Cutoff:           1E-12
    Mask sparsity (%):       1.3850
    Fitting Condition:        1E-10

   => Auxiliary Basis Set <=

  Basis Set: (STO-6G AUX)
    Blend: DEF2-QZVPP-JKFIT
    Number of shells: 158
    Number of basis function: 572
    Number of Cartesian functions: 749
    Spherical Harmonics?: true
    Max angular momentum: 6

  Cached 100.0% of DFT collocation blocks in 0.024 [GiB].

  Minimum eigenvalue in the overlap matrix is 2.5516844877E-01.
  Using Symmetric Orthogonalization.

  SCF Guess: Huckel guess via on-the-fly atomic UHF (doi:10.1021/acs.jctc.8b01089).

  ==> Iterations <==

                           Total Energy        Delta E     RMS |[F,P]|

   @DF-RKS iter   1: -1378.03919728487813   -1.37804e+03   6.37781e-02 DIIS
   @DF-RKS iter   2: -1359.43467942795860    1.86045e+01   9.92619e-02 DIIS
   @DF-RKS iter   3: -1375.36371609487060   -1.59290e+01   1.22373e-01 DIIS
   @DF-RKS iter   4: -1382.80490987027997   -7.44119e+00   4.23782e-02 DIIS
   @DF-RKS iter   5: -1383.63717768571769   -8.32268e-01   3.14054e-02 DIIS
   @DF-RKS iter   6: -1383.60886096542754    2.83167e-02   2.95697e-02 DIIS
   @DF-RKS iter   7: -1383.51925319979478    8.96078e-02   3.36645e-02 DIIS
   @DF-RKS iter   8: -1384.23285813836196   -7.13605e-01   9.55344e-03 DIIS
   @DF-RKS iter   9: -1384.27952822315342   -4.66701e-02   4.51974e-03 DIIS
   @DF-RKS iter  10: -1384.28841313153407   -8.88491e-03   1.87376e-03 DIIS
   @DF-RKS iter  11: -1384.29155609196437   -3.14296e-03   8.38891e-04 DIIS
   @DF-RKS iter  12: -1384.29191209329133   -3.56001e-04   2.78032e-04 DIIS
   @DF-RKS iter  13: -1384.29197231343892   -6.02201e-05   3.49470e-05 DIIS
   @DF-RKS iter  14: -1384.29197296276288   -6.49324e-07   1.17637e-06 DIIS
   @DF-RKS iter  15: -1384.29197296332427   -5.61386e-10   1.07948e-06 DIIS
   @DF-RKS iter  16: -1384.29197296401890   -6.94627e-10   1.96618e-07 DIIS
   @DF-RKS iter  17: -1384.29197296403959   -2.06910e-11   2.85297e-08 DIIS
   @DF-RKS iter  18: -1384.29197296403777    1.81899e-12   5.06912e-10 DIIS
  Energy and wave function converged.


  ==> Post-Iterations <==

    Orbital Energies [Eh]
    ---------------------

    Doubly Occupied:                                                      

       1A   -214.375139     2A    -24.133580     3A    -24.133507  
       4A    -23.782709     5A    -20.972507     6A    -20.972066  
       7A    -20.969758     8A    -18.565984     9A    -18.565826  
      10A     -2.756783    11A     -1.894365    12A     -1.891885  
      13A     -1.891002    14A     -0.990730    15A     -0.985454  
      16A     -0.765095    17A     -0.753693    18A     -0.300542  
      19A     -0.297540    20A     -0.282838    21A     -0.259379  
      22A     -0.252281    23A     -0.241573    24A     -0.238804  
      25A     -0.205960    26A     -0.186056    27A     -0.177914  
      28A     -0.168972    29A     -0.131421  

    Virtual:                                                              

      30A      0.000806    31A      0.026983    32A      0.060839  
      33A      0.093265    34A      0.099169    35A      0.236787  
      36A      0.413582    37A      0.448483    38A      0.489354  

    Final Occupation by Irrep:
              A 
    DOCC [    29 ]

  @DF-RKS Final Energy: -1384.29197296403777

   => Energetics <=

    Nuclear Repulsion Energy =            355.1816055152577860
    One-Electron Energy =               -2620.7443870224715283
    Two-Electron Energy =                 963.6388741154928539
    DFT Exchange-Correlation Energy =     -82.3680655723166808
    Empirical Dispersion Energy =           0.0000000000000000
    VV10 Nonlocal Energy =                  0.0000000000000000
    Total Energy =                      -1384.2919729640377682

Computation Completed


Properties will be evaluated at   0.000000,   0.000000,   0.000000 [a0]

Properties computed using the SCF density matrix

  Nuclear Dipole Moment: [e a0]
     X:    -0.0209      Y:     1.3901      Z:    -0.3060

  Electronic Dipole Moment: [e a0]
     X:     0.0284      Y:    -1.8934      Z:     0.4167

  Dipole Moment: [e a0]
     X:     0.0076      Y:    -0.5033      Z:     0.1108     Total:     0.5154

  Dipole Moment: [D]
     X:     0.0192      Y:    -1.2791      Z:     0.2815     Total:     1.3099


*** tstop() called on thinkpad at Sat Jul 10 14:55:29 2021
Module time:
	user time   =       6.72 seconds =       0.11 minutes
	system time =       0.07 seconds =       0.00 minutes
	total time  =          4 seconds =       0.07 minutes
Total time:
	user time   =       6.72 seconds =       0.11 minutes
	system time =       0.07 seconds =       0.00 minutes
	total time  =          4 seconds =       0.07 minutes

*** tstart() called on thinkpad
*** at Sat Jul 10 14:55:29 2021


         ------------------------------------------------------------
                                   SCF GRAD                          
                          Rob Parrish, Justin Turney,                
                       Andy Simmonett, and Alex Sokolov              
         ------------------------------------------------------------

  ==> Geometry <==

    Molecular point group: c1
    Full point group: C1

    Geometry (in Angstrom), charge = 0, multiplicity = 1:

       Center              X                  Y                   Z               Mass       
    ------------   -----------------  -----------------  -----------------  -----------------
         CR          -0.001007494106     0.066977222278    -0.014740872913    51.940506230000
         O            1.032026911530     0.774294509849    -0.925580220059    15.994914619570
         O           -1.059610119760     1.061379315891     0.521553481217    15.994914619570
         F           -0.777319056575    -1.116564494645    -0.902008870901    18.998403162730
         F            0.803296019493    -0.612016410908     1.282463034931    18.998403162730

  Nuclear repulsion =  355.181605515257786

  ==> Basis Set <==

  Basis Set: STO-6G
    Blend: STO-6G
    Number of shells: 20
    Number of basis function: 38
    Number of Cartesian functions: 39
    Spherical Harmonics?: true
    Max angular momentum: 2

  ==> DFJKGrad: Density-Fitted SCF Gradients <==

    Gradient:                    1
    J tasked:                  Yes
    K tasked:                   No
    wK tasked:                  No
    OpenMP threads:              4
    Integrals threads:           4
    Memory [MiB]:             5722
    Schwarz Cutoff:          0E+00
    Fitting Condition:       1E-10

   => Auxiliary Basis Set <=

  Basis Set: (STO-6G AUX)
    Blend: DEF2-QZVPP-JKFIT
    Number of shells: 158
    Number of basis function: 572
    Number of Cartesian functions: 749
    Spherical Harmonics?: true
    Max angular momentum: 6

  ==> DFT Potential <==

   => Composite Functional: MY LDA <= 

    Slater exchange
    Perdew & Wang
    P. A. M. Dirac, Math. Proc. Cambridge Philos. Soc. 26, 376 (1930)
    F. Bloch, Z. Phys. 57, 545 (1929)
    J. P. Perdew and Y. Wang, Phys. Rev. B 45, 13244 (1992)

    Deriv               =              1
    GGA                 =          FALSE
    Meta                =          FALSE

    Exchange Hybrid     =          FALSE
    MP2 Hybrid          =          FALSE

   => Exchange Functionals <=

    1.0000         XC_lda_x

   => Correlation Functionals <=

    1.0000      XC_lda_c_pw

   => Molecular Quadrature <=

    Radial Scheme          =       TREUTLER
    Pruning Scheme         =           FLAT
    Nuclear Scheme         =       TREUTLER

    BS radius alpha        =              1
    Pruning alpha          =              1
    Radial Points          =             75
    Spherical Points       =            302
    Total Points           =         110936
    Total Blocks           =            901
    Max Points             =            256
    Max Functions          =             37


  -Total Gradient:
     Atom            X                  Y                   Z
    ------   -----------------  -----------------  -----------------
       1        0.000181197912    -0.012118356501     0.002667772362
       2        0.063078022273     0.036945299984    -0.054174381099
       3       -0.064451109086     0.054449619851     0.034058575921
       4       -0.036440987985    -0.051517868323    -0.042451093481
       5        0.037634556157    -0.027872149959     0.059924111587


*** tstop() called on thinkpad at Sat Jul 10 14:55:31 2021
Module time:
	user time   =       3.42 seconds =       0.06 minutes
	system time =       0.01 seconds =       0.00 minutes
	total time  =          2 seconds =       0.03 minutes
Total time:
	user time   =      10.14 seconds =       0.17 minutes
	system time =       0.08 seconds =       0.00 minutes
	total time  =          6 seconds =       0.10 minutes

			-----------------------------------------
			 OPTKING 2.0: for geometry optimizations 
			  - R.A. King,  Bethel University        
			-----------------------------------------

	Internal coordinates to be generated automatically.
	Detected frag 1 with atoms:  1 2 3 4 5
	---Fragment 1 Bond Connectivity---
	 1 : 2 3 4 5
	 2 : 1
	 3 : 1
	 4 : 1
	 5 : 1

	---Fragment 1 Geometry and Gradient---
	 CR         -0.0019038879        0.1265686067       -0.0278562127
	 O           1.9502482169        1.4632045641       -1.7490931231
	 O          -2.0023729261        2.0057162223        0.9855932393
	 F          -1.4689201290       -2.1100010963       -1.7045497287
	 F           1.5180094745       -1.1565434009        2.4235039020
	             0.0001811979       -0.0121183565        0.0026677724
	             0.0630780223        0.0369453000       -0.0541743811
	            -0.0644511091        0.0544496199        0.0340585759
	            -0.0364409880       -0.0515178683       -0.0424510935
	             0.0376345562       -0.0278721500        0.0599241116

	Previous optimization step data not found.  Starting new optimization.

	---Fragment 1 Intrafragment Coordinates---
	 - Coordinate -           - BOHR/RAD -       - ANG/DEG -
	 R(1,2)           =         2.925773	       1.548253
	 R(1,3)           =         2.925774	       1.548253
	 R(1,4)           =         3.156847	       1.670531
	 R(1,5)           =         3.156846	       1.670531
	 B(2,1,3)         =         1.946113	     111.504060
	 B(2,1,4)         =         1.897868	     108.739823
	 B(2,1,5)         =         1.897867	     108.739770
	 B(3,1,4)         =         1.897872	     108.740061
	 B(3,1,5)         =         1.897872	     108.740055
	 B(4,1,5)         =         1.926457	     110.377858

	Current energy   :     -1384.2919729640

	Generating empirical Hessian (Schlegel '84) for each fragment.
	Taking RFO optimization step.
	Going to follow RFO solution 1.
	Using RFO vector 1.
	Norm of target step-size    0.10838
	Projected energy change by RFO approximation:        -0.0171815317

	Back-transformation to cartesian coordinates...
	Successfully converged to displaced geometry.

	--- Internal Coordinate Step in ANG or DEG, aJ/ANG or AJ/DEG ---
	 ---------------------------------------------------------------------------
	   Coordinate                Previous        Force       Change         New 
	   ----------                --------       ------       ------       ------
	    1 R(1,2)          =      1.548253    -0.748485    -0.017401     1.530852
	    2 R(1,3)          =      1.548253    -0.748487    -0.017401     1.530852
	    3 R(1,4)          =      1.670531    -0.625877    -0.029590     1.640941
	    4 R(1,5)          =      1.670531    -0.625876    -0.029590     1.640941
	    5 B(2,1,3)        =    111.504060    -0.000835    -2.364574   109.139486
	    6 B(2,1,4)        =    108.739823     0.000326     0.929807   109.669630
	    7 B(2,1,5)        =    108.739770     0.000326     0.929859   109.669628
	    8 B(3,1,4)        =    108.740061     0.000326     0.929590   109.669651
	    9 B(3,1,5)        =    108.740055     0.000326     0.929602   109.669657
	   10 B(4,1,5)        =    110.377858    -0.000484    -1.367214   109.010644
	 ---------------------------------------------------------------------------
	Successfully symmetrized geometry.

  ==> Convergence Check <==

  Measures of convergence in internal coordinates in au.
  Criteria marked as inactive (o), active & met (*), and active & unmet ( ).
  --------------------------------------------------------------------------------------------- ~
   Step     Total Energy     Delta E     MAX Force     RMS Force      MAX Disp      RMS Disp    ~
  --------------------------------------------------------------------------------------------- ~
    Convergence Criteria             o    2.00e-06 *    1.00e-06 *    6.00e-06 *    4.00e-06 *  ~
  --------------------------------------------------------------------------------------------- ~
      1   -1384.29197296   -1.38e+03 o    9.08e-02      5.32e-02      5.59e-02      3.43e-02    ~
  ---------------------------------------------------------------------------------------------

	Writing optimization data to binary file.
	Structure for next step:
	Cartesian Geometry (in Angstrom)
	   CR    -0.0009062473   0.0603297011  -0.0132785138
	    O     1.0053899151   0.7870403337  -0.9092508882
	    O    -1.0332460832   1.0668478875   0.5012141913
	    F    -0.7567392100  -1.1158059141  -0.8724118667
	    F     0.7828878860  -0.6243418665   1.2554136298
			--------------------------
			 OPTKING Finished Execution 
			--------------------------

    Structure for next step:
    Molecular point group: c1
    Full point group: C1

    Geometry (in Angstrom), charge = 0, multiplicity = 1:

    CR          -0.000940325980     0.062574403120    -0.013772391144
    O            1.005355840431     0.789285038589    -0.909744769101
    O           -1.033280165949     1.069092593456     0.500720315906
    F           -0.756773291675    -1.113561216776    -0.872905747474
    F            0.782853810423    -0.622097167149     1.254919757390

gradient() will perform analytic gradient computation.

*** tstart() called on thinkpad
*** at Sat Jul 10 14:55:31 2021

   => Loading Basis Set <=

    Name: STO-6G
    Role: ORBITAL
    Keyword: BASIS
    atoms 1   entry CR         line   518 file /home/susi/dokumentit/tutkimus/linuxchemistry/suppinfo/psi4/transition_metals/sto-6g.gbs 
    atoms 2-3 entry O          line   115 file /home/susi/dokumentit/tutkimus/linuxchemistry/suppinfo/psi4/transition_metals/sto-6g.gbs 
    atoms 4-5 entry F          line   131 file /home/susi/dokumentit/tutkimus/linuxchemistry/suppinfo/psi4/transition_metals/sto-6g.gbs 


         ---------------------------------------------------------
                                   SCF
               by Justin Turney, Rob Parrish, Andy Simmonett
                          and Daniel G. A. Smith
                              RKS Reference
                        4 Threads,   7629 MiB Core
         ---------------------------------------------------------

  ==> Geometry <==

    Molecular point group: c1
    Full point group: C1

    Geometry (in Angstrom), charge = 0, multiplicity = 1:

       Center              X                  Y                   Z               Mass       
    ------------   -----------------  -----------------  -----------------  -----------------
         CR          -0.000940325980     0.062574403120    -0.013772391144    51.940506230000
         O            1.005355840431     0.789285038589    -0.909744769101    15.994914619570
         O           -1.033280165949     1.069092593456     0.500720315906    15.994914619570
         F           -0.756773291675    -1.113561216776    -0.872905747474    18.998403162730
         F            0.782853810423    -0.622097167149     1.254919757390    18.998403162730

  Running in c1 symmetry.

  Rotational constants: A =      0.15471  B =      0.14335  C =      0.13273 [cm^-1]
  Rotational constants: A =   4638.18478  B =   4297.62748  C =   3979.13672 [MHz]
  Nuclear repulsion =  360.428302716393034

  Charge       = 0
  Multiplicity = 1
  Electrons    = 58
  Nalpha       = 29
  Nbeta        = 29

  ==> Algorithm <==

  SCF Algorithm Type is DF.
  DIIS enabled.
  MOM disabled.
  Fractional occupation disabled.
  Guess Type is READ.
  Energy threshold   = 1.00e-08
  Density threshold  = 1.00e-08
  Integral threshold = 0.00e+00

  ==> Primary Basis <==

  Basis Set: STO-6G
    Blend: STO-6G
    Number of shells: 20
    Number of basis function: 38
    Number of Cartesian functions: 39
    Spherical Harmonics?: true
    Max angular momentum: 2

  ==> DFT Potential <==

   => Composite Functional: MY LDA <= 

    Slater exchange
    Perdew & Wang
    P. A. M. Dirac, Math. Proc. Cambridge Philos. Soc. 26, 376 (1930)
    F. Bloch, Z. Phys. 57, 545 (1929)
    J. P. Perdew and Y. Wang, Phys. Rev. B 45, 13244 (1992)

    Deriv               =              1
    GGA                 =          FALSE
    Meta                =          FALSE

    Exchange Hybrid     =          FALSE
    MP2 Hybrid          =          FALSE

   => Exchange Functionals <=

    1.0000         XC_lda_x

   => Correlation Functionals <=

    1.0000      XC_lda_c_pw

   => Molecular Quadrature <=

    Radial Scheme          =       TREUTLER
    Pruning Scheme         =           FLAT
    Nuclear Scheme         =       TREUTLER

    BS radius alpha        =              1
    Pruning alpha          =              1
    Radial Points          =             75
    Spherical Points       =            302
    Total Points           =         110928
    Total Blocks           =            897
    Max Points             =            256
    Max Functions          =             37

   => Loading Basis Set <=

    Name: (STO-6G AUX)
    Role: JKFIT
    Keyword: DF_BASIS_SCF
    atoms 1   entry CR         line  1731 file /usr/share/psi4/basis/def2-qzvpp-jkfit.gbs 
    atoms 2-3 entry O          line   323 file /usr/share/psi4/basis/def2-qzvpp-jkfit.gbs 
    atoms 4-5 entry F          line   383 file /usr/share/psi4/basis/def2-qzvpp-jkfit.gbs 

   => Loading Basis Set <=

    Name: STO-6G
    Role: ORBITAL
    Keyword: BASIS
    atoms 1   entry CR         line   518 file /home/susi/dokumentit/tutkimus/linuxchemistry/suppinfo/psi4/transition_metals/sto-6g.gbs 
    atoms 2-3 entry O          line   115 file /home/susi/dokumentit/tutkimus/linuxchemistry/suppinfo/psi4/transition_metals/sto-6g.gbs 
    atoms 4-5 entry F          line   131 file /home/susi/dokumentit/tutkimus/linuxchemistry/suppinfo/psi4/transition_metals/sto-6g.gbs 

  Reading orbitals from file 180, no projection.

  ==> Pre-Iterations <==

   -------------------------------------------------------
    Irrep   Nso     Nmo     Nalpha   Nbeta   Ndocc  Nsocc
   -------------------------------------------------------
     A         38      38       0       0       0       0
   -------------------------------------------------------
    Total      38      38      29      29      29       0
   -------------------------------------------------------

  ==> Integral Setup <==

  DFHelper Memory: AOs need 0.009 GiB; user supplied 5.564 GiB. Using in-core AOs.

  ==> MemDFJK: Density-Fitted J/K Matrices <==

    J tasked:                   Yes
    K tasked:                    No
    wK tasked:                   No
    OpenMP threads:               4
    Memory [MiB]:              5697
    Algorithm:                 Core
    Schwarz Cutoff:           1E-12
    Mask sparsity (%):       1.3850
    Fitting Condition:        1E-10

   => Auxiliary Basis Set <=

  Basis Set: (STO-6G AUX)
    Blend: DEF2-QZVPP-JKFIT
    Number of shells: 158
    Number of basis function: 572
    Number of Cartesian functions: 749
    Spherical Harmonics?: true
    Max angular momentum: 6

  Cached 100.0% of DFT collocation blocks in 0.024 [GiB].

  Minimum eigenvalue in the overlap matrix is 2.4550131827E-01.
  Using Symmetric Orthogonalization.

  SCF Guess: Orbitals guess was supplied from a previous computation.

  ==> Iterations <==

                           Total Energy        Delta E     RMS |[F,P]|

   @DF-RKS iter   0: -1384.33267278635549   -1.38433e+03   3.68245e-03 
   @DF-RKS iter   1: -1384.30214856062094    3.05242e-02   2.22093e-03 DIIS
   @DF-RKS iter   2: -1384.14865783810023    1.53491e-01   1.79412e-02 DIIS
   @DF-RKS iter   3: -1384.30456667695489   -1.55909e-01   6.66966e-04 DIIS
   @DF-RKS iter   4: -1384.30470987144395   -1.43194e-04   3.86345e-04 DIIS
   @DF-RKS iter   5: -1384.30480261738808   -9.27459e-05   1.24176e-05 DIIS
   @DF-RKS iter   6: -1384.30480274348133   -1.26093e-07   8.84318e-07 DIIS
   @DF-RKS iter   7: -1384.30480274374668   -2.65345e-10   4.36630e-07 DIIS
   @DF-RKS iter   8: -1384.30480274386946   -1.22782e-10   1.88489e-07 DIIS
   @DF-RKS iter   9: -1384.30480274389265   -2.31921e-11   2.32414e-08 DIIS
   @DF-RKS iter  10: -1384.30480274389652   -3.86535e-12   4.35617e-09 DIIS
  Energy and wave function converged.


  ==> Post-Iterations <==

    Orbital Energies [Eh]
    ---------------------

    Doubly Occupied:                                                      

       1A   -214.366913     2A    -24.140291     3A    -24.140195  
       4A    -23.776730     5A    -20.966354     6A    -20.965764  
       7A    -20.963784     8A    -18.565508     9A    -18.565300  
      10A     -2.755308    11A     -1.894392    12A     -1.890886  
      13A     -1.890369    14A     -0.997008    15A     -0.991719  
      16A     -0.764323    17A     -0.754019    18A     -0.310031  
      19A     -0.303523    20A     -0.291820    21A     -0.269510  
      22A     -0.260493    23A     -0.244342    24A     -0.243327  
      25A     -0.207406    26A     -0.183979    27A     -0.180751  
      28A     -0.171172    29A     -0.130784  

    Virtual:                                                              

      30A      0.010084    31A      0.033232    32A      0.075308  
      33A      0.102197    34A      0.111557    35A      0.240460  
      36A      0.422257    37A      0.471233    38A      0.494041  

    Final Occupation by Irrep:
              A 
    DOCC [    29 ]

  @DF-RKS Final Energy: -1384.30480274389652

   => Energetics <=

    Nuclear Repulsion Energy =            360.4283027163930342
    One-Electron Energy =               -2631.1510751939631518
    Two-Electron Energy =                 968.8258737076025682
    DFT Exchange-Correlation Energy =     -82.4079039739288248
    Empirical Dispersion Energy =           0.0000000000000000
    VV10 Nonlocal Energy =                  0.0000000000000000
    Total Energy =                      -1384.3048027438965164

Computation Completed


Properties will be evaluated at   0.000000,   0.000000,   0.000000 [a0]

Properties computed using the SCF density matrix

  Nuclear Dipole Moment: [e a0]
     X:    -0.0212      Y:     1.4133      Z:    -0.3111

  Electronic Dipole Moment: [e a0]
     X:     0.0293      Y:    -1.9467      Z:     0.4285

  Dipole Moment: [e a0]
     X:     0.0080      Y:    -0.5334      Z:     0.1174     Total:     0.5463

  Dipole Moment: [D]
     X:     0.0204      Y:    -1.3559      Z:     0.2984     Total:     1.3885


*** tstop() called on thinkpad at Sat Jul 10 14:55:33 2021
Module time:
	user time   =       3.95 seconds =       0.07 minutes
	system time =       0.04 seconds =       0.00 minutes
	total time  =          2 seconds =       0.03 minutes
Total time:
	user time   =      14.13 seconds =       0.24 minutes
	system time =       0.12 seconds =       0.00 minutes
	total time  =          8 seconds =       0.13 minutes

*** tstart() called on thinkpad
*** at Sat Jul 10 14:55:33 2021


         ------------------------------------------------------------
                                   SCF GRAD                          
                          Rob Parrish, Justin Turney,                
                       Andy Simmonett, and Alex Sokolov              
         ------------------------------------------------------------

  ==> Geometry <==

    Molecular point group: c1
    Full point group: C1

    Geometry (in Angstrom), charge = 0, multiplicity = 1:

       Center              X                  Y                   Z               Mass       
    ------------   -----------------  -----------------  -----------------  -----------------
         CR          -0.000940325980     0.062574403120    -0.013772391144    51.940506230000
         O            1.005355840431     0.789285038589    -0.909744769101    15.994914619570
         O           -1.033280165949     1.069092593456     0.500720315906    15.994914619570
         F           -0.756773291675    -1.113561216776    -0.872905747474    18.998403162730
         F            0.782853810423    -0.622097167149     1.254919757390    18.998403162730

  Nuclear repulsion =  360.428302716393034

  ==> Basis Set <==

  Basis Set: STO-6G
    Blend: STO-6G
    Number of shells: 20
    Number of basis function: 38
    Number of Cartesian functions: 39
    Spherical Harmonics?: true
    Max angular momentum: 2

  ==> DFJKGrad: Density-Fitted SCF Gradients <==

    Gradient:                    1
    J tasked:                  Yes
    K tasked:                   No
    wK tasked:                  No
    OpenMP threads:              4
    Integrals threads:           4
    Memory [MiB]:             5722
    Schwarz Cutoff:          0E+00
    Fitting Condition:       1E-10

   => Auxiliary Basis Set <=

  Basis Set: (STO-6G AUX)
    Blend: DEF2-QZVPP-JKFIT
    Number of shells: 158
    Number of basis function: 572
    Number of Cartesian functions: 749
    Spherical Harmonics?: true
    Max angular momentum: 6

  ==> DFT Potential <==

   => Composite Functional: MY LDA <= 

    Slater exchange
    Perdew & Wang
    P. A. M. Dirac, Math. Proc. Cambridge Philos. Soc. 26, 376 (1930)
    F. Bloch, Z. Phys. 57, 545 (1929)
    J. P. Perdew and Y. Wang, Phys. Rev. B 45, 13244 (1992)

    Deriv               =              1
    GGA                 =          FALSE
    Meta                =          FALSE

    Exchange Hybrid     =          FALSE
    MP2 Hybrid          =          FALSE

   => Exchange Functionals <=

    1.0000         XC_lda_x

   => Correlation Functionals <=

    1.0000      XC_lda_c_pw

   => Molecular Quadrature <=

    Radial Scheme          =       TREUTLER
    Pruning Scheme         =           FLAT
    Nuclear Scheme         =       TREUTLER

    BS radius alpha        =              1
    Pruning alpha          =              1
    Radial Points          =             75
    Spherical Points       =            302
    Total Points           =         110928
    Total Blocks           =            897
    Max Points             =            256
    Max Functions          =             37


  -Total Gradient:
     Atom            X                  Y                   Z
    ------   -----------------  -----------------  -----------------
       1        0.000256146447    -0.017046221960     0.003751909825
       2        0.042210568418     0.031625769234    -0.037846827028
       3       -0.043337464673     0.043367523938     0.021341005154
       4       -0.024943161045    -0.037147863492    -0.028682642105
       5        0.025816097971    -0.020944975691     0.041468638772


*** tstop() called on thinkpad at Sat Jul 10 14:55:34 2021
Module time:
	user time   =       3.36 seconds =       0.06 minutes
	system time =       0.02 seconds =       0.00 minutes
	total time  =          1 seconds =       0.02 minutes
Total time:
	user time   =      17.50 seconds =       0.29 minutes
	system time =       0.14 seconds =       0.00 minutes
	total time  =          9 seconds =       0.15 minutes

			-----------------------------------------
			 OPTKING 2.0: for geometry optimizations 
			  - R.A. King,  Bethel University        
			-----------------------------------------

	Previous internal coordinate definitions found.
	---Fragment 1 Geometry and Gradient---
	 CR         -0.0017769586        0.1182484844       -0.0260260474
	 O           1.8998471970        1.4915325579       -1.7191684577
	 O          -1.9526165245        2.0202922044        0.9462242625
	 F          -1.4300942603       -2.1043257236       -1.6495527961
	 F           1.4793792980       -1.1755932693        2.3714546509
	             0.0002561464       -0.0170462220        0.0037519098
	             0.0422105684        0.0316257692       -0.0378468270
	            -0.0433374647        0.0433675239        0.0213410052
	            -0.0249431610       -0.0371478635       -0.0286826421
	             0.0258160980       -0.0209449757        0.0414686388

	---Fragment 1 Intrafragment Coordinates---
	 - Coordinate -           - BOHR/RAD -       - ANG/DEG -
	 R(1,2)           =         2.892890	       1.530852
	 R(1,3)           =         2.892891	       1.530852
	 R(1,4)           =         3.100930	       1.640941
	 R(1,5)           =         3.100930	       1.640941
	 B(2,1,3)         =         1.904843	     109.139486
	 B(2,1,4)         =         1.914096	     109.669630
	 B(2,1,5)         =         1.914096	     109.669628
	 B(3,1,4)         =         1.914096	     109.669651
	 B(3,1,5)         =         1.914097	     109.669657
	 B(4,1,5)         =         1.902595	     109.010644

	Current energy   :     -1384.3048027439

	Energy change for the previous step:
		Projected    :        -0.0171815317
		Actual       :        -0.0128297799

	Performing BFGS update.
	Previous computed or guess Hessian on step 1.
	Steps to be used in Hessian update: 1
	Taking RFO optimization step.
	Going to follow RFO solution 1.
	Using RFO vector 1.
	Norm of target step-size    0.21848
	Projected energy change by RFO approximation:        -0.0190738526

	Back-transformation to cartesian coordinates...
	Successfully converged to displaced geometry.

	--- Internal Coordinate Step in ANG or DEG, aJ/ANG or AJ/DEG ---
	 ---------------------------------------------------------------------------
	   Coordinate                Previous        Force       Change         New 
	   ----------                --------       ------       ------       ------
	    1 R(1,2)          =      1.530852    -0.534925    -0.040984     1.489867
	    2 R(1,3)          =      1.530852    -0.534926    -0.040985     1.489867
	    3 R(1,4)          =      1.640941    -0.437594    -0.067784     1.573157
	    4 R(1,5)          =      1.640941    -0.437594    -0.067784     1.573157
	    5 B(2,1,3)        =    109.139486     0.000232     1.422858   110.562345
	    6 B(2,1,4)        =    109.669630     0.000019     0.293741   109.963371
	    7 B(2,1,5)        =    109.669628     0.000019     0.293760   109.963388
	    8 B(3,1,4)        =    109.669651     0.000019     0.293642   109.963293
	    9 B(3,1,5)        =    109.669657     0.000019     0.293634   109.963291
	   10 B(4,1,5)        =    109.010644    -0.000307    -2.672234   106.338410
	 ---------------------------------------------------------------------------
	Successfully symmetrized geometry.

  ==> Convergence Check <==

  Measures of convergence in internal coordinates in au.
  Criteria marked as inactive (o), active & met (*), and active & unmet ( ).
  ---------------------------------------------------------------------------------------------
   Step     Total Energy     Delta E     MAX Force     RMS Force      MAX Disp      RMS Disp   
  ---------------------------------------------------------------------------------------------
    Convergence Criteria             o    2.00e-06 *    1.00e-06 *    6.00e-06 *    4.00e-06 *
  ---------------------------------------------------------------------------------------------
      2   -1384.30480274   -1.28e-02 o    6.49e-02      3.75e-02      1.28e-01      6.91e-02    ~
  ---------------------------------------------------------------------------------------------

	Writing optimization data to binary file.
	Structure for next step:
	Cartesian Geometry (in Angstrom)
	   CR    -0.0011109111   0.0739639728  -0.0162796037
	    O     0.9871529939   0.7652428677  -0.8910209480
	    O    -1.0142776556   1.0399426565   0.4937035302
	    F    -0.7128151146  -1.0785276285  -0.8163191971
	    F     0.7382665547  -0.6153282180   1.1891333844
			--------------------------
			 OPTKING Finished Execution 
			--------------------------

    Structure for next step:
    Molecular point group: c1
    Full point group: C1

    Geometry (in Angstrom), charge = 0, multiplicity = 1:

    CR          -0.001045124156     0.069576449123    -0.015313823722
    O            0.987218784690     0.760855346820    -0.890055171479
    O           -1.014211872676     1.035555136700     0.494669312160
    F           -0.712749330473    -1.082915156634    -0.815353420320
    F            0.738332344541    -0.619715744377     1.190099169057

gradient() will perform analytic gradient computation.

*** tstart() called on thinkpad
*** at Sat Jul 10 14:55:34 2021

   => Loading Basis Set <=

    Name: STO-6G
    Role: ORBITAL
    Keyword: BASIS
    atoms 1   entry CR         line   518 file /home/susi/dokumentit/tutkimus/linuxchemistry/suppinfo/psi4/transition_metals/sto-6g.gbs 
    atoms 2-3 entry O          line   115 file /home/susi/dokumentit/tutkimus/linuxchemistry/suppinfo/psi4/transition_metals/sto-6g.gbs 
    atoms 4-5 entry F          line   131 file /home/susi/dokumentit/tutkimus/linuxchemistry/suppinfo/psi4/transition_metals/sto-6g.gbs 


         ---------------------------------------------------------
                                   SCF
               by Justin Turney, Rob Parrish, Andy Simmonett
                          and Daniel G. A. Smith
                              RKS Reference
                        4 Threads,   7629 MiB Core
         ---------------------------------------------------------

  ==> Geometry <==

    Molecular point group: c1
    Full point group: C1

    Geometry (in Angstrom), charge = 0, multiplicity = 1:

       Center              X                  Y                   Z               Mass       
    ------------   -----------------  -----------------  -----------------  -----------------
         CR          -0.001045124156     0.069576449123    -0.015313823722    51.940506230000
         O            0.987218784690     0.760855346820    -0.890055171479    15.994914619570
         O           -1.014211872676     1.035555136700     0.494669312160    15.994914619570
         F           -0.712749330473    -1.082915156634    -0.815353420320    18.998403162730
         F            0.738332344541    -0.619715744377     1.190099169057    18.998403162730

  Running in c1 symmetry.

  Rotational constants: A =      0.16181  B =      0.15577  C =      0.14476 [cm^-1]
  Rotational constants: A =   4851.01081  B =   4670.00194  C =   4339.86257 [MHz]
  Nuclear repulsion =  373.297950059523373

  Charge       = 0
  Multiplicity = 1
  Electrons    = 58
  Nalpha       = 29
  Nbeta        = 29

  ==> Algorithm <==

  SCF Algorithm Type is DF.
  DIIS enabled.
  MOM disabled.
  Fractional occupation disabled.
  Guess Type is READ.
  Energy threshold   = 1.00e-08
  Density threshold  = 1.00e-08
  Integral threshold = 0.00e+00

  ==> Primary Basis <==

  Basis Set: STO-6G
    Blend: STO-6G
    Number of shells: 20
    Number of basis function: 38
    Number of Cartesian functions: 39
    Spherical Harmonics?: true
    Max angular momentum: 2

  ==> DFT Potential <==

   => Composite Functional: MY LDA <= 

    Slater exchange
    Perdew & Wang
    P. A. M. Dirac, Math. Proc. Cambridge Philos. Soc. 26, 376 (1930)
    F. Bloch, Z. Phys. 57, 545 (1929)
    J. P. Perdew and Y. Wang, Phys. Rev. B 45, 13244 (1992)

    Deriv               =              1
    GGA                 =          FALSE
    Meta                =          FALSE

    Exchange Hybrid     =          FALSE
    MP2 Hybrid          =          FALSE

   => Exchange Functionals <=

    1.0000         XC_lda_x

   => Correlation Functionals <=

    1.0000      XC_lda_c_pw

   => Molecular Quadrature <=

    Radial Scheme          =       TREUTLER
    Pruning Scheme         =           FLAT
    Nuclear Scheme         =       TREUTLER

    BS radius alpha        =              1
    Pruning alpha          =              1
    Radial Points          =             75
    Spherical Points       =            302
    Total Points           =         110888
    Total Blocks           =            902
    Max Points             =            256
    Max Functions          =             37

   => Loading Basis Set <=

    Name: (STO-6G AUX)
    Role: JKFIT
    Keyword: DF_BASIS_SCF
    atoms 1   entry CR         line  1731 file /usr/share/psi4/basis/def2-qzvpp-jkfit.gbs 
    atoms 2-3 entry O          line   323 file /usr/share/psi4/basis/def2-qzvpp-jkfit.gbs 
    atoms 4-5 entry F          line   383 file /usr/share/psi4/basis/def2-qzvpp-jkfit.gbs 

   => Loading Basis Set <=

    Name: STO-6G
    Role: ORBITAL
    Keyword: BASIS
    atoms 1   entry CR         line   518 file /home/susi/dokumentit/tutkimus/linuxchemistry/suppinfo/psi4/transition_metals/sto-6g.gbs 
    atoms 2-3 entry O          line   115 file /home/susi/dokumentit/tutkimus/linuxchemistry/suppinfo/psi4/transition_metals/sto-6g.gbs 
    atoms 4-5 entry F          line   131 file /home/susi/dokumentit/tutkimus/linuxchemistry/suppinfo/psi4/transition_metals/sto-6g.gbs 

  Reading orbitals from file 180, no projection.

  ==> Pre-Iterations <==

   -------------------------------------------------------
    Irrep   Nso     Nmo     Nalpha   Nbeta   Ndocc  Nsocc
   -------------------------------------------------------
     A         38      38       0       0       0       0
   -------------------------------------------------------
    Total      38      38      29      29      29       0
   -------------------------------------------------------

  ==> Integral Setup <==

  DFHelper Memory: AOs need 0.009 GiB; user supplied 5.564 GiB. Using in-core AOs.

  ==> MemDFJK: Density-Fitted J/K Matrices <==

    J tasked:                   Yes
    K tasked:                    No
    wK tasked:                   No
    OpenMP threads:               4
    Memory [MiB]:              5697
    Algorithm:                 Core
    Schwarz Cutoff:           1E-12
    Mask sparsity (%):       1.3850
    Fitting Condition:        1E-10

   => Auxiliary Basis Set <=

  Basis Set: (STO-6G AUX)
    Blend: DEF2-QZVPP-JKFIT
    Number of shells: 158
    Number of basis function: 572
    Number of Cartesian functions: 749
    Spherical Harmonics?: true
    Max angular momentum: 6

  Cached 100.0% of DFT collocation blocks in 0.024 [GiB].

  Minimum eigenvalue in the overlap matrix is 2.3674546788E-01.
  Using Symmetric Orthogonalization.

  SCF Guess: Orbitals guess was supplied from a previous computation.

  ==> Iterations <==

                           Total Energy        Delta E     RMS |[F,P]|

   @DF-RKS iter   0: -1384.39039863638482   -1.38439e+03   9.06577e-03 
   @DF-RKS iter   1: -1384.30192233159642    8.84763e-02   4.62779e-03 DIIS
   @DF-RKS iter   2: -1383.67237765967866    6.29545e-01   3.65165e-02 DIIS
   @DF-RKS iter   3: -1384.31208090664086   -6.39703e-01   1.99901e-03 DIIS
   @DF-RKS iter   4: -1384.31393588884930   -1.85498e-03   5.47757e-04 DIIS
   @DF-RKS iter   5: -1384.31416507088124   -2.29182e-04   7.70240e-05 DIIS
   @DF-RKS iter   6: -1384.31416832461218   -3.25373e-06   3.73433e-06 DIIS
   @DF-RKS iter   7: -1384.31416833285380   -8.24161e-09   4.49176e-07 DIIS
   @DF-RKS iter   8: -1384.31416833296339   -1.09594e-10   1.15723e-07 DIIS
   @DF-RKS iter   9: -1384.31416833297135   -7.95808e-12   5.83755e-08 DIIS
   @DF-RKS iter  10: -1384.31416833297430   -2.95586e-12   4.48469e-09 DIIS
  Energy and wave function converged.


  ==> Post-Iterations <==

    Orbital Energies [Eh]
    ---------------------

    Doubly Occupied:                                                      

       1A   -214.345555     2A    -24.157868     3A    -24.157714  
       4A    -23.761720     5A    -20.950868     6A    -20.950163  
       7A    -20.948345     8A    -18.564007     9A    -18.563819  
      10A     -2.753327    11A     -1.895444    12A     -1.891377  
      13A     -1.891262    14A     -1.011849    15A     -1.006849  
      16A     -0.763819    17A     -0.752275    18A     -0.332739  
      19A     -0.322911    20A     -0.315886    21A     -0.293756  
      22A     -0.285002    23A     -0.254570    24A     -0.249026  
      25A     -0.207738    26A     -0.185074    27A     -0.178046  
      28A     -0.177416    29A     -0.130465  

    Virtual:                                                              

      30A      0.027932    31A      0.052553    32A      0.105727  
      33A      0.128917    34A      0.138954    35A      0.257848  
      36A      0.443560    37A      0.497272    38A      0.522471  

    Final Occupation by Irrep:
              A 
    DOCC [    29 ]

  @DF-RKS Final Energy: -1384.31416833297430

   => Energetics <=

    Nuclear Repulsion Energy =            373.2979500595233731
    One-Electron Energy =               -2656.6127370401436565
    Two-Electron Energy =                 981.5123886081954652
    DFT Exchange-Correlation Energy =     -82.5117699605495716
    Empirical Dispersion Energy =           0.0000000000000000
    VV10 Nonlocal Energy =                  0.0000000000000000
    Total Energy =                      -1384.3141683329743046

Computation Completed


Properties will be evaluated at   0.000000,   0.000000,   0.000000 [a0]

Properties computed using the SCF density matrix

  Nuclear Dipole Moment: [e a0]
     X:    -0.0204      Y:     1.3558      Z:    -0.2984

  Electronic Dipole Moment: [e a0]
     X:     0.0289      Y:    -1.9244      Z:     0.4235

  Dipole Moment: [e a0]
     X:     0.0085      Y:    -0.5686      Z:     0.1251     Total:     0.5823

  Dipole Moment: [D]
     X:     0.0217      Y:    -1.4452      Z:     0.3181     Total:     1.4800


*** tstop() called on thinkpad at Sat Jul 10 14:55:37 2021
Module time:
	user time   =       3.94 seconds =       0.07 minutes
	system time =       0.02 seconds =       0.00 minutes
	total time  =          3 seconds =       0.05 minutes
Total time:
	user time   =      21.48 seconds =       0.36 minutes
	system time =       0.16 seconds =       0.00 minutes
	total time  =         12 seconds =       0.20 minutes

*** tstart() called on thinkpad
*** at Sat Jul 10 14:55:37 2021


         ------------------------------------------------------------
                                   SCF GRAD                          
                          Rob Parrish, Justin Turney,                
                       Andy Simmonett, and Alex Sokolov              
         ------------------------------------------------------------

  ==> Geometry <==

    Molecular point group: c1
    Full point group: C1

    Geometry (in Angstrom), charge = 0, multiplicity = 1:

       Center              X                  Y                   Z               Mass       
    ------------   -----------------  -----------------  -----------------  -----------------
         CR          -0.001045124156     0.069576449123    -0.015313823722    51.940506230000
         O            0.987218784690     0.760855346820    -0.890055171479    15.994914619570
         O           -1.014211872676     1.035555136700     0.494669312160    15.994914619570
         F           -0.712749330473    -1.082915156634    -0.815353420320    18.998403162730
         F            0.738332344541    -0.619715744377     1.190099169057    18.998403162730

  Nuclear repulsion =  373.297950059523373

  ==> Basis Set <==

  Basis Set: STO-6G
    Blend: STO-6G
    Number of shells: 20
    Number of basis function: 38
    Number of Cartesian functions: 39
    Spherical Harmonics?: true
    Max angular momentum: 2

  ==> DFJKGrad: Density-Fitted SCF Gradients <==

    Gradient:                    1
    J tasked:                  Yes
    K tasked:                   No
    wK tasked:                  No
    OpenMP threads:              4
    Integrals threads:           4
    Memory [MiB]:             5722
    Schwarz Cutoff:          0E+00
    Fitting Condition:       1E-10

   => Auxiliary Basis Set <=

  Basis Set: (STO-6G AUX)
    Blend: DEF2-QZVPP-JKFIT
    Number of shells: 158
    Number of basis function: 572
    Number of Cartesian functions: 749
    Spherical Harmonics?: true
    Max angular momentum: 6

  ==> DFT Potential <==

   => Composite Functional: MY LDA <= 

    Slater exchange
    Perdew & Wang
    P. A. M. Dirac, Math. Proc. Cambridge Philos. Soc. 26, 376 (1930)
    F. Bloch, Z. Phys. 57, 545 (1929)
    J. P. Perdew and Y. Wang, Phys. Rev. B 45, 13244 (1992)

    Deriv               =              1
    GGA                 =          FALSE
    Meta                =          FALSE

    Exchange Hybrid     =          FALSE
    MP2 Hybrid          =          FALSE

   => Exchange Functionals <=

    1.0000         XC_lda_x

   => Correlation Functionals <=

    1.0000      XC_lda_c_pw

   => Molecular Quadrature <=

    Radial Scheme          =       TREUTLER
    Pruning Scheme         =           FLAT
    Nuclear Scheme         =       TREUTLER

    BS radius alpha        =              1
    Pruning alpha          =              1
    Radial Points          =             75
    Spherical Points       =            302
    Total Points           =         110888
    Total Blocks           =            902
    Max Points             =            256
    Max Functions          =             37


  -Total Gradient:
     Atom            X                  Y                   Z
    ------   -----------------  -----------------  -----------------
       1        0.000051065988    -0.003381326039     0.000743950869
       2       -0.006309746370    -0.007175378207     0.006222808414
       3        0.006551796516    -0.008940756690    -0.002675613087
       4        0.009249562120     0.012670338180     0.010855627393
       5       -0.009540340810     0.006672362066    -0.015112713943


*** tstop() called on thinkpad at Sat Jul 10 14:55:38 2021
Module time:
	user time   =       3.23 seconds =       0.05 minutes
	system time =       0.01 seconds =       0.00 minutes
	total time  =          1 seconds =       0.02 minutes
Total time:
	user time   =      24.71 seconds =       0.41 minutes
	system time =       0.17 seconds =       0.00 minutes
	total time  =         13 seconds =       0.22 minutes

			-----------------------------------------
			 OPTKING 2.0: for geometry optimizations 
			  - R.A. King,  Bethel University        
			-----------------------------------------

	Previous internal coordinate definitions found.
	---Fragment 1 Geometry and Gradient---
	 CR         -0.0019749984        0.1314804336       -0.0289389328
	 O           1.8655731290        1.4378082266       -1.6819605106
	 O          -1.9165826725        1.9569155962        0.9347895227
	 F          -1.3469010307       -2.0464130631       -1.5407946599
	 F           1.3952459207       -1.1710930325        2.2489614917
	             0.0000510660       -0.0033813260        0.0007439509
	            -0.0063097464       -0.0071753782        0.0062228084
	             0.0065517965       -0.0089407567       -0.0026756131
	             0.0092495621        0.0126703382        0.0108556274
	            -0.0095403408        0.0066723621       -0.0151127139

	---Fragment 1 Intrafragment Coordinates---
	 - Coordinate -           - BOHR/RAD -       - ANG/DEG -
	 R(1,2)           =         2.815441	       1.489867
	 R(1,3)           =         2.815441	       1.489867
	 R(1,4)           =         2.972836	       1.573157
	 R(1,5)           =         2.972836	       1.573157
	 B(2,1,3)         =         1.929677	     110.562345
	 B(2,1,4)         =         1.919223	     109.963371
	 B(2,1,5)         =         1.919223	     109.963388
	 B(3,1,4)         =         1.919222	     109.963293
	 B(3,1,5)         =         1.919221	     109.963291
	 B(4,1,5)         =         1.855955	     106.338410

	Current energy   :     -1384.3141683330

	Energy change for the previous step:
		Projected    :        -0.0190738526
		Actual       :        -0.0093655891

	Performing BFGS update.
	Previous computed or guess Hessian on step 1.
	Steps to be used in Hessian update: 2 1
	Taking RFO optimization step.
	Going to follow RFO solution 1.
	Using RFO vector 1.
	Norm of target step-size    0.06152
	Projected energy change by RFO approximation:        -0.0016102320

	Back-transformation to cartesian coordinates...
	Successfully converged to displaced geometry.

	--- Internal Coordinate Step in ANG or DEG, aJ/ANG or AJ/DEG ---
	 ---------------------------------------------------------------------------
	   Coordinate                Previous        Force       Change         New 
	   ----------                --------       ------       ------       ------
	    1 R(1,2)          =      1.489867     0.091863     0.008490     1.498357
	    2 R(1,3)          =      1.489867     0.091863     0.008490     1.498357
	    3 R(1,4)          =      1.573157     0.156589     0.017286     1.590443
	    4 R(1,5)          =      1.573157     0.156589     0.017285     1.590443
	    5 B(2,1,3)        =    110.562345    -0.000468    -1.217729   109.344616
	    6 B(2,1,4)        =    109.963371     0.000018    -0.052332   109.911039
	    7 B(2,1,5)        =    109.963388     0.000018    -0.052349   109.911039
	    8 B(3,1,4)        =    109.963293     0.000018    -0.052236   109.911057
	    9 B(3,1,5)        =    109.963291     0.000018    -0.052231   109.911060
	   10 B(4,1,5)        =    106.338410     0.000430     1.496686   107.835096
	 ---------------------------------------------------------------------------
	Successfully symmetrized geometry.

  ==> Convergence Check <==

  Measures of convergence in internal coordinates in au.
  Criteria marked as inactive (o), active & met (*), and active & unmet ( ).
  ---------------------------------------------------------------------------------------------
   Step     Total Energy     Delta E     MAX Force     RMS Force      MAX Disp      RMS Disp   
  ---------------------------------------------------------------------------------------------
    Convergence Criteria             o    2.00e-06 *    1.00e-06 *    6.00e-06 *    4.00e-06 *
  ---------------------------------------------------------------------------------------------
      3   -1384.31416833   -9.37e-03 o    1.90e-02      1.02e-02      3.27e-02      1.95e-02    ~
  ---------------------------------------------------------------------------------------------

	Writing optimization data to binary file.
	Structure for next step:
	Cartesian Geometry (in Angstrom)
	   CR    -0.0009035190   0.0601158742  -0.0132312095
	    O     0.9853335651   0.7690912634  -0.8905931740
	    O    -1.0125672418   1.0433077119   0.4916886438
	    F    -0.7277843524  -1.0909942595  -0.8354826384
	    F     0.7534663501  -0.6181645589   1.2116644439
			--------------------------
			 OPTKING Finished Execution 
			--------------------------

    Structure for next step:
    Molecular point group: c1
    Full point group: C1

    Geometry (in Angstrom), charge = 0, multiplicity = 1:

    CR          -0.000947704251     0.063065771323    -0.013880564389
    O            0.985289383801     0.772041163305    -0.891242532375
    O           -1.012611431032     1.046257612965     0.491039290835
    F           -0.727828540437    -1.088044366885    -0.836131996592
    F            0.753422167811    -0.615214664438     1.211015093820

gradient() will perform analytic gradient computation.

*** tstart() called on thinkpad
*** at Sat Jul 10 14:55:38 2021

   => Loading Basis Set <=

    Name: STO-6G
    Role: ORBITAL
    Keyword: BASIS
    atoms 1   entry CR         line   518 file /home/susi/dokumentit/tutkimus/linuxchemistry/suppinfo/psi4/transition_metals/sto-6g.gbs 
    atoms 2-3 entry O          line   115 file /home/susi/dokumentit/tutkimus/linuxchemistry/suppinfo/psi4/transition_metals/sto-6g.gbs 
    atoms 4-5 entry F          line   131 file /home/susi/dokumentit/tutkimus/linuxchemistry/suppinfo/psi4/transition_metals/sto-6g.gbs 


         ---------------------------------------------------------
                                   SCF
               by Justin Turney, Rob Parrish, Andy Simmonett
                          and Daniel G. A. Smith
                              RKS Reference
                        4 Threads,   7629 MiB Core
         ---------------------------------------------------------

  ==> Geometry <==

    Molecular point group: c1
    Full point group: C1

    Geometry (in Angstrom), charge = 0, multiplicity = 1:

       Center              X                  Y                   Z               Mass       
    ------------   -----------------  -----------------  -----------------  -----------------
         CR          -0.000947704251     0.063065771323    -0.013880564389    51.940506230000
         O            0.985289383801     0.772041163305    -0.891242532375    15.994914619570
         O           -1.012611431032     1.046257612965     0.491039290835    15.994914619570
         F           -0.727828540437    -1.088044366885    -0.836131996592    18.998403162730
         F            0.753422167811    -0.615214664438     1.211015093820    18.998403162730

  Running in c1 symmetry.

  Rotational constants: A =      0.16109  B =      0.15245  C =      0.14093 [cm^-1]
  Rotational constants: A =   4829.28220  B =   4570.25053  C =   4224.89333 [MHz]
  Nuclear repulsion =  370.133731942507893

  Charge       = 0
  Multiplicity = 1
  Electrons    = 58
  Nalpha       = 29
  Nbeta        = 29

  ==> Algorithm <==

  SCF Algorithm Type is DF.
  DIIS enabled.
  MOM disabled.
  Fractional occupation disabled.
  Guess Type is READ.
  Energy threshold   = 1.00e-08
  Density threshold  = 1.00e-08
  Integral threshold = 0.00e+00

  ==> Primary Basis <==

  Basis Set: STO-6G
    Blend: STO-6G
    Number of shells: 20
    Number of basis function: 38
    Number of Cartesian functions: 39
    Spherical Harmonics?: true
    Max angular momentum: 2

  ==> DFT Potential <==

   => Composite Functional: MY LDA <= 

    Slater exchange
    Perdew & Wang
    P. A. M. Dirac, Math. Proc. Cambridge Philos. Soc. 26, 376 (1930)
    F. Bloch, Z. Phys. 57, 545 (1929)
    J. P. Perdew and Y. Wang, Phys. Rev. B 45, 13244 (1992)

    Deriv               =              1
    GGA                 =          FALSE
    Meta                =          FALSE

    Exchange Hybrid     =          FALSE
    MP2 Hybrid          =          FALSE

   => Exchange Functionals <=

    1.0000         XC_lda_x

   => Correlation Functionals <=

    1.0000      XC_lda_c_pw

   => Molecular Quadrature <=

    Radial Scheme          =       TREUTLER
    Pruning Scheme         =           FLAT
    Nuclear Scheme         =       TREUTLER

    BS radius alpha        =              1
    Pruning alpha          =              1
    Radial Points          =             75
    Spherical Points       =            302
    Total Points           =         110910
    Total Blocks           =            902
    Max Points             =            256
    Max Functions          =             37

   => Loading Basis Set <=

    Name: (STO-6G AUX)
    Role: JKFIT
    Keyword: DF_BASIS_SCF
    atoms 1   entry CR         line  1731 file /usr/share/psi4/basis/def2-qzvpp-jkfit.gbs 
    atoms 2-3 entry O          line   323 file /usr/share/psi4/basis/def2-qzvpp-jkfit.gbs 
    atoms 4-5 entry F          line   383 file /usr/share/psi4/basis/def2-qzvpp-jkfit.gbs 

   => Loading Basis Set <=

    Name: STO-6G
    Role: ORBITAL
    Keyword: BASIS
    atoms 1   entry CR         line   518 file /home/susi/dokumentit/tutkimus/linuxchemistry/suppinfo/psi4/transition_metals/sto-6g.gbs 
    atoms 2-3 entry O          line   115 file /home/susi/dokumentit/tutkimus/linuxchemistry/suppinfo/psi4/transition_metals/sto-6g.gbs 
    atoms 4-5 entry F          line   131 file /home/susi/dokumentit/tutkimus/linuxchemistry/suppinfo/psi4/transition_metals/sto-6g.gbs 

  Reading orbitals from file 180, no projection.

  ==> Pre-Iterations <==

   -------------------------------------------------------
    Irrep   Nso     Nmo     Nalpha   Nbeta   Ndocc  Nsocc
   -------------------------------------------------------
     A         38      38       0       0       0       0
   -------------------------------------------------------
    Total      38      38      29      29      29       0
   -------------------------------------------------------

  ==> Integral Setup <==

  DFHelper Memory: AOs need 0.009 GiB; user supplied 5.564 GiB. Using in-core AOs.

  ==> MemDFJK: Density-Fitted J/K Matrices <==

    J tasked:                   Yes
    K tasked:                    No
    wK tasked:                   No
    OpenMP threads:               4
    Memory [MiB]:              5697
    Algorithm:                 Core
    Schwarz Cutoff:           1E-12
    Mask sparsity (%):       1.3850
    Fitting Condition:        1E-10

   => Auxiliary Basis Set <=

  Basis Set: (STO-6G AUX)
    Blend: DEF2-QZVPP-JKFIT
    Number of shells: 158
    Number of basis function: 572
    Number of Cartesian functions: 749
    Spherical Harmonics?: true
    Max angular momentum: 6

  Cached 100.0% of DFT collocation blocks in 0.024 [GiB].

  Minimum eigenvalue in the overlap matrix is 2.3643918463E-01.
  Using Symmetric Orthogonalization.

  SCF Guess: Orbitals guess was supplied from a previous computation.

  ==> Iterations <==

                           Total Energy        Delta E     RMS |[F,P]|

   @DF-RKS iter   0: -1384.29861885947321   -1.38430e+03   2.45439e-03 
   @DF-RKS iter   1: -1384.31395910327205   -1.53402e-02   1.28053e-03 DIIS
   @DF-RKS iter   2: -1384.28262813872198    3.13310e-02   7.55004e-03 DIIS
   @DF-RKS iter   3: -1384.31478611541570   -3.21580e-02   3.67385e-04 DIIS
   @DF-RKS iter   4: -1384.31488858624152   -1.02471e-04   9.87925e-05 DIIS
   @DF-RKS iter   5: -1384.31489543140651   -6.84516e-06   2.45888e-05 DIIS
   @DF-RKS iter   6: -1384.31489575925389   -3.27847e-07   3.74940e-06 DIIS
   @DF-RKS iter   7: -1384.31489576689137   -7.63748e-09   3.43734e-07 DIIS
   @DF-RKS iter   8: -1384.31489576698164   -9.02673e-11   4.42824e-08 DIIS
   @DF-RKS iter   9: -1384.31489576698254   -9.09495e-13   1.51246e-08 DIIS
   @DF-RKS iter  10: -1384.31489576698254    0.00000e+00   2.34268e-09 DIIS
  Energy and wave function converged.


  ==> Post-Iterations <==

    Orbital Energies [Eh]
    ---------------------

    Doubly Occupied:                                                      

       1A   -214.350860     2A    -24.152822     3A    -24.152697  
       4A    -23.765372     5A    -20.954638     6A    -20.953918  
       7A    -20.952178     8A    -18.564798     9A    -18.564585  
      10A     -2.753573    11A     -1.894901    12A     -1.890892  
      13A     -1.890769    14A     -1.007925    15A     -1.002570  
      16A     -0.763966    17A     -0.753345    18A     -0.326590  
      19A     -0.317882    20A     -0.309116    21A     -0.286852  
      22A     -0.278625    23A     -0.251532    24A     -0.248920  
      25A     -0.208255    26A     -0.184542    27A     -0.179601  
      28A     -0.175639    29A     -0.130640  

    Virtual:                                                              

      30A      0.024582    31A      0.047662    32A      0.098274  
      33A      0.122619    34A      0.132623    35A      0.251429  
      36A      0.440931    37A      0.492659    38A      0.514106  

    Final Occupation by Irrep:
              A 
    DOCC [    29 ]

  @DF-RKS Final Energy: -1384.31489576698254

   => Energetics <=

    Nuclear Repulsion Energy =            370.1337319425078931
    One-Electron Energy =               -2650.3648667982160987
    Two-Electron Energy =                 978.4024862124044830
    DFT Exchange-Correlation Energy =     -82.4862471236788224
    Empirical Dispersion Energy =           0.0000000000000000
    VV10 Nonlocal Energy =                  0.0000000000000000
    Total Energy =                      -1384.3148957669825450

Computation Completed


Properties will be evaluated at   0.000000,   0.000000,   0.000000 [a0]

Properties computed using the SCF density matrix

  Nuclear Dipole Moment: [e a0]
     X:    -0.0207      Y:     1.3807      Z:    -0.3039

  Electronic Dipole Moment: [e a0]
     X:     0.0293      Y:    -1.9473      Z:     0.4286

  Dipole Moment: [e a0]
     X:     0.0085      Y:    -0.5665      Z:     0.1247     Total:     0.5802

  Dipole Moment: [D]
     X:     0.0216      Y:    -1.4400      Z:     0.3169     Total:     1.4746


*** tstop() called on thinkpad at Sat Jul 10 14:55:40 2021
Module time:
	user time   =       3.91 seconds =       0.07 minutes
	system time =       0.03 seconds =       0.00 minutes
	total time  =          2 seconds =       0.03 minutes
Total time:
	user time   =      28.66 seconds =       0.48 minutes
	system time =       0.20 seconds =       0.00 minutes
	total time  =         15 seconds =       0.25 minutes

*** tstart() called on thinkpad
*** at Sat Jul 10 14:55:40 2021


         ------------------------------------------------------------
                                   SCF GRAD                          
                          Rob Parrish, Justin Turney,                
                       Andy Simmonett, and Alex Sokolov              
         ------------------------------------------------------------

  ==> Geometry <==

    Molecular point group: c1
    Full point group: C1

    Geometry (in Angstrom), charge = 0, multiplicity = 1:

       Center              X                  Y                   Z               Mass       
    ------------   -----------------  -----------------  -----------------  -----------------
         CR          -0.000947704251     0.063065771323    -0.013880564389    51.940506230000
         O            0.985289383801     0.772041163305    -0.891242532375    15.994914619570
         O           -1.012611431032     1.046257612965     0.491039290835    15.994914619570
         F           -0.727828540437    -1.088044366885    -0.836131996592    18.998403162730
         F            0.753422167811    -0.615214664438     1.211015093820    18.998403162730

  Nuclear repulsion =  370.133731942507893

  ==> Basis Set <==

  Basis Set: STO-6G
    Blend: STO-6G
    Number of shells: 20
    Number of basis function: 38
    Number of Cartesian functions: 39
    Spherical Harmonics?: true
    Max angular momentum: 2

  ==> DFJKGrad: Density-Fitted SCF Gradients <==

    Gradient:                    1
    J tasked:                  Yes
    K tasked:                   No
    wK tasked:                  No
    OpenMP threads:              4
    Integrals threads:           4
    Memory [MiB]:             5722
    Schwarz Cutoff:          0E+00
    Fitting Condition:       1E-10

   => Auxiliary Basis Set <=

  Basis Set: (STO-6G AUX)
    Blend: DEF2-QZVPP-JKFIT
    Number of shells: 158
    Number of basis function: 572
    Number of Cartesian functions: 749
    Spherical Harmonics?: true
    Max angular momentum: 6

  ==> DFT Potential <==

   => Composite Functional: MY LDA <= 

    Slater exchange
    Perdew & Wang
    P. A. M. Dirac, Math. Proc. Cambridge Philos. Soc. 26, 376 (1930)
    F. Bloch, Z. Phys. 57, 545 (1929)
    J. P. Perdew and Y. Wang, Phys. Rev. B 45, 13244 (1992)

    Deriv               =              1
    GGA                 =          FALSE
    Meta                =          FALSE

    Exchange Hybrid     =          FALSE
    MP2 Hybrid          =          FALSE

   => Exchange Functionals <=

    1.0000         XC_lda_x

   => Correlation Functionals <=

    1.0000      XC_lda_c_pw

   => Molecular Quadrature <=

    Radial Scheme          =       TREUTLER
    Pruning Scheme         =           FLAT
    Nuclear Scheme         =       TREUTLER

    BS radius alpha        =              1
    Pruning alpha          =              1
    Radial Points          =             75
    Spherical Points       =            302
    Total Points           =         110910
    Total Blocks           =            902
    Max Points             =            256
    Max Functions          =             37


  -Total Gradient:
     Atom            X                  Y                   Z
    ------   -----------------  -----------------  -----------------
       1        0.000102501819    -0.006821667991     0.001501487453
       2        0.004228801041     0.003895029323    -0.003959467643
       3       -0.004363600167     0.005074406750     0.001985317402
       4       -0.000971448053    -0.001473650759    -0.001111795100
       5        0.001006270577    -0.000842328121     0.001621482337


*** tstop() called on thinkpad at Sat Jul 10 14:55:42 2021
Module time:
	user time   =       3.25 seconds =       0.05 minutes
	system time =       0.02 seconds =       0.00 minutes
	total time  =          2 seconds =       0.03 minutes
Total time:
	user time   =      31.91 seconds =       0.53 minutes
	system time =       0.22 seconds =       0.00 minutes
	total time  =         17 seconds =       0.28 minutes

			-----------------------------------------
			 OPTKING 2.0: for geometry optimizations 
			  - R.A. King,  Bethel University        
			-----------------------------------------

	Previous internal coordinate definitions found.
	---Fragment 1 Geometry and Gradient---
	 CR         -0.0017909015        0.1191770357       -0.0262304652
	 O           1.8619270897        1.4589463562       -1.6842042975
	 O          -1.9135582762        1.9771403452        0.9279297765
	 F          -1.3753966077       -2.0561058658       -1.5800604783
	 F           1.4237615540       -1.1625872242        2.2884868611
	             0.0001025018       -0.0068216680        0.0015014875
	             0.0042288010        0.0038950293       -0.0039594676
	            -0.0043636002        0.0050744068        0.0019853174
	            -0.0009714481       -0.0014736508       -0.0011117951
	             0.0010062706       -0.0008423281        0.0016214823

	---Fragment 1 Intrafragment Coordinates---
	 - Coordinate -           - BOHR/RAD -       - ANG/DEG -
	 R(1,2)           =         2.831484	       1.498357
	 R(1,3)           =         2.831484	       1.498357
	 R(1,4)           =         3.005501	       1.590443
	 R(1,5)           =         3.005501	       1.590443
	 B(2,1,3)         =         1.908424	     109.344616
	 B(2,1,4)         =         1.918310	     109.911039
	 B(2,1,5)         =         1.918310	     109.911039
	 B(3,1,4)         =         1.918310	     109.911057
	 B(3,1,5)         =         1.918310	     109.911060
	 B(4,1,5)         =         1.882077	     107.835096

	Current energy   :     -1384.3148957670

	Energy change for the previous step:
		Projected    :        -0.0016102320
		Actual       :        -0.0007274340

	Performing BFGS update.
	Previous computed or guess Hessian on step 1.
	Steps to be used in Hessian update: 3 2
	Taking RFO optimization step.
	Going to follow RFO solution 1.
	Using RFO vector 1.
	Norm of target step-size    0.01321
	Projected energy change by RFO approximation:        -0.0001074892

	Back-transformation to cartesian coordinates...
	Successfully converged to displaced geometry.

	--- Internal Coordinate Step in ANG or DEG, aJ/ANG or AJ/DEG ---
	 ---------------------------------------------------------------------------
	   Coordinate                Previous        Force       Change         New 
	   ----------                --------       ------       ------       ------
	    1 R(1,2)          =      1.498357    -0.057381    -0.002959     1.495398
	    2 R(1,3)          =      1.498357    -0.057382    -0.002959     1.495398
	    3 R(1,4)          =      1.590443    -0.017013    -0.003104     1.587339
	    4 R(1,5)          =      1.590443    -0.017013    -0.003104     1.587339
	    5 B(2,1,3)        =    109.344616     0.000134     0.332986   109.677603
	    6 B(2,1,4)        =    109.911039    -0.000024    -0.048788   109.862250
	    7 B(2,1,5)        =    109.911039    -0.000024    -0.048791   109.862248
	    8 B(3,1,4)        =    109.911057    -0.000024    -0.048809   109.862248
	    9 B(3,1,5)        =    109.911060    -0.000024    -0.048814   109.862246
	   10 B(4,1,5)        =    107.835096    -0.000042    -0.146999   107.688097
	 ---------------------------------------------------------------------------
	Successfully symmetrized geometry.

  ==> Convergence Check <==

  Measures of convergence in internal coordinates in au.
  Criteria marked as inactive (o), active & met (*), and active & unmet ( ).
  ---------------------------------------------------------------------------------------------
   Step     Total Energy     Delta E     MAX Force     RMS Force      MAX Disp      RMS Disp   
  ---------------------------------------------------------------------------------------------
    Convergence Criteria             o    2.00e-06 *    1.00e-06 *    6.00e-06 *    4.00e-06 *
  ---------------------------------------------------------------------------------------------
      4   -1384.31489577   -7.27e-04 o    6.96e-03      3.31e-03      5.87e-03      4.18e-03    ~
  ---------------------------------------------------------------------------------------------

	Writing optimization data to binary file.
	Structure for next step:
	Cartesian Geometry (in Angstrom)
	   CR    -0.0009774092   0.0650488963  -0.0143171485
	    O     0.9854129655   0.7688773658  -0.8906011971
	    O    -1.0126401355   1.0431144688   0.4917860671
	    F    -0.7257241876  -1.0852003459  -0.8336544371
	    F     0.7512526427  -0.6137348694   1.2075860070
			--------------------------
			 OPTKING Finished Execution 
			--------------------------

    Structure for next step:
    Molecular point group: c1
    Full point group: C1

    Geometry (in Angstrom), charge = 0, multiplicity = 1:

    CR          -0.000967046394     0.064357736897    -0.014164998866
    O            0.985423332114     0.768186209170    -0.890449051002
    O           -1.012629776653     1.042423313239     0.491938218720
    F           -0.725713827703    -1.085891509840    -0.833502290712
    F            0.751263008474    -0.614426031474     1.207738161393

gradient() will perform analytic gradient computation.

*** tstart() called on thinkpad
*** at Sat Jul 10 14:55:42 2021

   => Loading Basis Set <=

    Name: STO-6G
    Role: ORBITAL
    Keyword: BASIS
    atoms 1   entry CR         line   518 file /home/susi/dokumentit/tutkimus/linuxchemistry/suppinfo/psi4/transition_metals/sto-6g.gbs 
    atoms 2-3 entry O          line   115 file /home/susi/dokumentit/tutkimus/linuxchemistry/suppinfo/psi4/transition_metals/sto-6g.gbs 
    atoms 4-5 entry F          line   131 file /home/susi/dokumentit/tutkimus/linuxchemistry/suppinfo/psi4/transition_metals/sto-6g.gbs 


         ---------------------------------------------------------
                                   SCF
               by Justin Turney, Rob Parrish, Andy Simmonett
                          and Daniel G. A. Smith
                              RKS Reference
                        4 Threads,   7629 MiB Core
         ---------------------------------------------------------

  ==> Geometry <==

    Molecular point group: c1
    Full point group: C1

    Geometry (in Angstrom), charge = 0, multiplicity = 1:

       Center              X                  Y                   Z               Mass       
    ------------   -----------------  -----------------  -----------------  -----------------
         CR          -0.000967046394     0.064357736897    -0.014164998866    51.940506230000
         O            0.985423332114     0.768186209170    -0.890449051002    15.994914619570
         O           -1.012629776653     1.042423313239     0.491938218720    15.994914619570
         F           -0.725713827703    -1.085891509840    -0.833502290712    18.998403162730
         F            0.751263008474    -0.614426031474     1.207738161393    18.998403162730

  Running in c1 symmetry.

  Rotational constants: A =      0.16158  B =      0.15294  C =      0.14174 [cm^-1]
  Rotational constants: A =   4843.97824  B =   4584.94656  C =   4249.28047 [MHz]
  Nuclear repulsion =  370.866864811783216

  Charge       = 0
  Multiplicity = 1
  Electrons    = 58
  Nalpha       = 29
  Nbeta        = 29

  ==> Algorithm <==

  SCF Algorithm Type is DF.
  DIIS enabled.
  MOM disabled.
  Fractional occupation disabled.
  Guess Type is READ.
  Energy threshold   = 1.00e-08
[...]
                                   SCF
               by Justin Turney, Rob Parrish, Andy Simmonett
                          and Daniel G. A. Smith
                              RKS Reference
                        4 Threads,   7629 MiB Core
         ---------------------------------------------------------

  ==> Geometry <==

    Molecular point group: c1
    Full point group: C1

    Geometry (in Angstrom), charge = 0, multiplicity = 1:

       Center              X                  Y                   Z               Mass       
    ------------   -----------------  -----------------  -----------------  -----------------
         CR          -0.000968443343     0.064449549977    -0.014185174553    51.940506230000
         O            0.984303988455     0.768899496895    -0.889803913486    15.994914619570
         O           -1.011527311240     1.042831696176     0.491046142893    15.994914619570
         F           -0.726615933402    -1.086780000493    -0.834629966291    18.998403162730
         F            0.752183143285    -0.614732896249     1.209128895534    18.998403162730

  Running in c1 symmetry.

  Rotational constants: A =      0.16163  B =      0.15287  C =      0.14147 [cm^-1]
  Rotational constants: A =   4845.42013  B =   4582.95798  C =   4241.10267 [MHz]
  Nuclear repulsion =  370.760374556018689

  Charge       = 0
  Multiplicity = 1
  Electrons    = 58
  Nalpha       = 29
  Nbeta        = 29

  ==> Algorithm <==

  SCF Algorithm Type is DF.
  DIIS enabled.
  MOM disabled.
  Fractional occupation disabled.
  Guess Type is READ.
  Energy threshold   = 1.00e-08
  Density threshold  = 1.00e-08
  Integral threshold = 0.00e+00

  ==> Primary Basis <==

  Basis Set: STO-6G
    Blend: STO-6G
    Number of shells: 20
    Number of basis function: 38
    Number of Cartesian functions: 39
    Spherical Harmonics?: true
    Max angular momentum: 2

  ==> DFT Potential <==

   => Composite Functional: MY LDA <= 

    Slater exchange
    Perdew & Wang
    P. A. M. Dirac, Math. Proc. Cambridge Philos. Soc. 26, 376 (1930)
    F. Bloch, Z. Phys. 57, 545 (1929)
    J. P. Perdew and Y. Wang, Phys. Rev. B 45, 13244 (1992)

    Deriv               =              1
    GGA                 =          FALSE
    Meta                =          FALSE

    Exchange Hybrid     =          FALSE
    MP2 Hybrid          =          FALSE

   => Exchange Functionals <=

    1.0000         XC_lda_x

   => Correlation Functionals <=

    1.0000      XC_lda_c_pw

   => Molecular Quadrature <=

    Radial Scheme          =       TREUTLER
    Pruning Scheme         =           FLAT
    Nuclear Scheme         =       TREUTLER

    BS radius alpha        =              1
    Pruning alpha          =              1
    Radial Points          =             75
    Spherical Points       =            302
    Total Points           =         110910
    Total Blocks           =            904
    Max Points             =            256
    Max Functions          =             37

   => Loading Basis Set <=

    Name: (STO-6G AUX)
    Role: JKFIT
    Keyword: DF_BASIS_SCF
    atoms 1   entry CR         line  1731 file /usr/share/psi4/basis/def2-qzvpp-jkfit.gbs 
    atoms 2-3 entry O          line   323 file /usr/share/psi4/basis/def2-qzvpp-jkfit.gbs 
    atoms 4-5 entry F          line   383 file /usr/share/psi4/basis/def2-qzvpp-jkfit.gbs 

   => Loading Basis Set <=

    Name: STO-6G
    Role: ORBITAL
    Keyword: BASIS
    atoms 1   entry CR         line   518 file /home/susi/dokumentit/tutkimus/linuxchemistry/suppinfo/psi4/transition_metals/sto-6g.gbs 
    atoms 2-3 entry O          line   115 file /home/susi/dokumentit/tutkimus/linuxchemistry/suppinfo/psi4/transition_metals/sto-6g.gbs 
    atoms 4-5 entry F          line   131 file /home/susi/dokumentit/tutkimus/linuxchemistry/suppinfo/psi4/transition_metals/sto-6g.gbs 

  Reading orbitals from file 180, no projection.

  ==> Pre-Iterations <==

   -------------------------------------------------------
    Irrep   Nso     Nmo     Nalpha   Nbeta   Ndocc  Nsocc
   -------------------------------------------------------
     A         38      38       0       0       0       0
   -------------------------------------------------------
    Total      38      38      29      29      29       0
   -------------------------------------------------------

  ==> Integral Setup <==

  DFHelper Memory: AOs need 0.009 GiB; user supplied 5.564 GiB. Using in-core AOs.

  ==> MemDFJK: Density-Fitted J/K Matrices <==

    J tasked:                   Yes
    K tasked:                    No
    wK tasked:                   No
    OpenMP threads:               4
    Memory [MiB]:              5697
    Algorithm:                 Core
    Schwarz Cutoff:           1E-12
    Mask sparsity (%):       1.3850
    Fitting Condition:        1E-10

   => Auxiliary Basis Set <=

  Basis Set: (STO-6G AUX)
    Blend: DEF2-QZVPP-JKFIT
    Number of shells: 158
    Number of basis function: 572
    Number of Cartesian functions: 749
    Spherical Harmonics?: true
    Max angular momentum: 6

  Cached 100.0% of DFT collocation blocks in 0.024 [GiB].

  Minimum eigenvalue in the overlap matrix is 2.3589838606E-01.
  Using Symmetric Orthogonalization.

  SCF Guess: Orbitals guess was supplied from a previous computation.

  ==> Iterations <==

                           Total Energy        Delta E     RMS |[F,P]|

   @DF-RKS iter   0: -1384.31495401073630   -1.38431e+03   2.60351e-07 
   @DF-RKS iter   1: -1384.31495369834511    3.12391e-07   1.43425e-08 DIIS
   @DF-RKS iter   2: -1384.31495369834192    3.18323e-12   4.25700e-08 DIIS
   @DF-RKS iter   3: -1384.31495369834533   -3.41061e-12   3.26366e-09 DIIS
  Energy and wave function converged.


  ==> Post-Iterations <==

    Orbital Energies [Eh]
    ---------------------

    Doubly Occupied:                                                      

       1A   -214.349841     2A    -24.152806     3A    -24.152679  
       4A    -23.764691     5A    -20.953932     6A    -20.953184  
       7A    -20.951485     8A    -18.565449     9A    -18.565239  
      10A     -2.753613    11A     -1.895039    12A     -1.891448  
      13A     -1.890620    14A     -1.007919    15A     -1.002598  
      16A     -0.764495    17A     -0.753678    18A     -0.327035  
      19A     -0.318390    20A     -0.310136    21A     -0.287459  
      22A     -0.279578    23A     -0.251721    24A     -0.249753  
      25A     -0.208312    26A     -0.184992    27A     -0.179599  
      28A     -0.176371    29A     -0.131131  

    Virtual:                                                              

      30A      0.025190    31A      0.048884    32A      0.099399  
      33A      0.124177    34A      0.134259    35A      0.252697  
      36A      0.441658    37A      0.493282    38A      0.516418  

    Final Occupation by Irrep:
              A 
    DOCC [    29 ]

  @DF-RKS Final Energy: -1384.31495369834533

   => Energetics <=

    Nuclear Repulsion Energy =            370.7603745560186894
    One-Electron Energy =               -2651.6037939762031783
    Two-Electron Energy =                 979.0207356746341247
    DFT Exchange-Correlation Energy =     -82.4922699527950130
    Empirical Dispersion Energy =           0.0000000000000000
    VV10 Nonlocal Energy =                  0.0000000000000000
    Total Energy =                      -1384.3149536983453345

Computation Completed


Properties will be evaluated at   0.000000,   0.000000,   0.000000 [a0]

Properties computed using the SCF density matrix

  Nuclear Dipole Moment: [e a0]
     X:    -0.0206      Y:     1.3739      Z:    -0.3024

  Electronic Dipole Moment: [e a0]
     X:     0.0291      Y:    -1.9353      Z:     0.4260

  Dipole Moment: [e a0]
     X:     0.0084      Y:    -0.5614      Z:     0.1236     Total:     0.5749

  Dipole Moment: [D]
     X:     0.0214      Y:    -1.4270      Z:     0.3141     Total:     1.4613


*** tstop() called on thinkpad at Sat Jul 10 14:56:02 2021
Module time:
	user time   =       2.93 seconds =       0.05 minutes
	system time =       0.01 seconds =       0.00 minutes
	total time  =          2 seconds =       0.03 minutes
Total time:
	user time   =      68.78 seconds =       1.15 minutes
	system time =       0.39 seconds =       0.01 minutes
	total time  =         37 seconds =       0.62 minutes

*** tstart() called on thinkpad
*** at Sat Jul 10 14:56:02 2021


         ------------------------------------------------------------
                                   SCF GRAD                          
                          Rob Parrish, Justin Turney,                
                       Andy Simmonett, and Alex Sokolov              
         ------------------------------------------------------------

  ==> Geometry <==

    Molecular point group: c1
    Full point group: C1

    Geometry (in Angstrom), charge = 0, multiplicity = 1:

       Center              X                  Y                   Z               Mass       
    ------------   -----------------  -----------------  -----------------  -----------------
         CR          -0.000968443343     0.064449549977    -0.014185174553    51.940506230000
         O            0.984303988455     0.768899496895    -0.889803913486    15.994914619570
         O           -1.011527311240     1.042831696176     0.491046142893    15.994914619570
         F           -0.726615933402    -1.086780000493    -0.834629966291    18.998403162730
         F            0.752183143285    -0.614732896249     1.209128895534    18.998403162730

  Nuclear repulsion =  370.760374556018633

  ==> Basis Set <==

  Basis Set: STO-6G
    Blend: STO-6G
    Number of shells: 20
    Number of basis function: 38
    Number of Cartesian functions: 39
    Spherical Harmonics?: true
    Max angular momentum: 2

  ==> DFJKGrad: Density-Fitted SCF Gradients <==

    Gradient:                    1
    J tasked:                  Yes
    K tasked:                   No
    wK tasked:                  No
    OpenMP threads:              4
    Integrals threads:           4
    Memory [MiB]:             5722
    Schwarz Cutoff:          0E+00
    Fitting Condition:       1E-10

   => Auxiliary Basis Set <=

  Basis Set: (STO-6G AUX)
    Blend: DEF2-QZVPP-JKFIT
    Number of shells: 158
    Number of basis function: 572
    Number of Cartesian functions: 749
    Spherical Harmonics?: true
    Max angular momentum: 6

  ==> DFT Potential <==

   => Composite Functional: MY LDA <= 

    Slater exchange
    Perdew & Wang
    P. A. M. Dirac, Math. Proc. Cambridge Philos. Soc. 26, 376 (1930)
    F. Bloch, Z. Phys. 57, 545 (1929)
    J. P. Perdew and Y. Wang, Phys. Rev. B 45, 13244 (1992)

    Deriv               =              1
    GGA                 =          FALSE
    Meta                =          FALSE

    Exchange Hybrid     =          FALSE
    MP2 Hybrid          =          FALSE

   => Exchange Functionals <=

    1.0000         XC_lda_x

   => Correlation Functionals <=

    1.0000      XC_lda_c_pw

   => Molecular Quadrature <=

    Radial Scheme          =       TREUTLER
    Pruning Scheme         =           FLAT
    Nuclear Scheme         =       TREUTLER

    BS radius alpha        =              1
    Pruning alpha          =              1
    Radial Points          =             75
    Spherical Points       =            302
    Total Points           =         110910
    Total Blocks           =            904
    Max Points             =            256
    Max Functions          =             37


  -Total Gradient:
     Atom            X                  Y                   Z
    ------   -----------------  -----------------  -----------------
       1        0.000000461751    -0.000033832911     0.000007447545
       2        0.000000328382    -0.000033526524     0.000007512875
       3        0.000000709841    -0.000033596214     0.000007250880
       4        0.000000550649    -0.000033208736     0.000007377426
       5        0.000000465011    -0.000033247921     0.000007258837


*** tstop() called on thinkpad at Sat Jul 10 14:56:04 2021
Module time:
	user time   =       3.20 seconds =       0.05 minutes
	system time =       0.01 seconds =       0.00 minutes
	total time  =          2 seconds =       0.03 minutes
Total time:
	user time   =      71.98 seconds =       1.20 minutes
	system time =       0.40 seconds =       0.01 minutes
	total time  =         39 seconds =       0.65 minutes

			-----------------------------------------
			 OPTKING 2.0: for geometry optimizations 
			  - R.A. King,  Bethel University        
			-----------------------------------------

	Previous internal coordinate definitions found.
	---Fragment 1 Geometry and Gradient---
	 CR         -0.0018300927        0.1217919984       -0.0268060949
	 O           1.8600649624        1.4530094671       -1.6814857019
	 O          -1.9115095867        1.9706663007        0.9279427250
	 F          -1.3731051125       -2.0537165596       -1.5772220524
	 F           1.4214201370       -1.1616768142        2.2849224629
	             0.0000004618       -0.0000338329        0.0000074475
	             0.0000003284       -0.0000335265        0.0000075129
	             0.0000007098       -0.0000335962        0.0000072509
	             0.0000005506       -0.0000332087        0.0000073774
	             0.0000004650       -0.0000332479        0.0000072588

	---Fragment 1 Intrafragment Coordinates---
	 - Coordinate -           - BOHR/RAD -       - ANG/DEG -
	 R(1,2)           =         2.824315	       1.494563
	 R(1,3)           =         2.824315	       1.494563
	 R(1,4)           =         3.002836	       1.589032
	 R(1,5)           =         3.002836	       1.589032
	 B(2,1,3)         =         1.912662	     109.587470
	 B(2,1,4)         =         1.917748	     109.878876
	 B(2,1,5)         =         1.917748	     109.878877
	 B(3,1,4)         =         1.917748	     109.878880
	 B(3,1,5)         =         1.917748	     109.878882
	 B(4,1,5)         =         1.879969	     107.714261

	Current energy   :     -1384.3149536983

	Energy change for the previous step:
		Projected    :        -0.0000000000
		Actual       :         0.0000000023

	Performing BFGS update.
	Previous computed or guess Hessian on step 1.
	Denominators (dg)(dq) or (dq)(dq) are very small.
	 Skipping Hessian update for step 9.
	Denominators (dg)(dq) or (dq)(dq) are very small.
	 Skipping Hessian update for step 8.
	Denominators (dg)(dq) or (dq)(dq) are very small.
	 Skipping Hessian update for step 7.
	Steps to be used in Hessian update: 6 5
	Taking RFO optimization step.
	Going to follow RFO solution 1.
	Using RFO vector 1.
	Norm of target step-size    0.00000
	Projected energy change by RFO approximation:        -0.0000000000

	Back-transformation to cartesian coordinates...
	Successfully converged to displaced geometry.

	--- Internal Coordinate Step in ANG or DEG, aJ/ANG or AJ/DEG ---
	 ---------------------------------------------------------------------------
	   Coordinate                Previous        Force       Change         New 
	   ----------                --------       ------       ------       ------
	    1 R(1,2)          =      1.494563     0.000002     0.000000     1.494563
	    2 R(1,3)          =      1.494563     0.000002     0.000000     1.494563
	    3 R(1,4)          =      1.589032     0.000002     0.000000     1.589032
	    4 R(1,5)          =      1.589032     0.000002     0.000000     1.589032
	    5 B(2,1,3)        =    109.587470     0.000000     0.000048   109.587519
	    6 B(2,1,4)        =    109.878876     0.000000     0.000012   109.878889
	    7 B(2,1,5)        =    109.878877     0.000000     0.000016   109.878893
	    8 B(3,1,4)        =    109.878880     0.000000     0.000010   109.878890
	    9 B(3,1,5)        =    109.878882     0.000000     0.000012   109.878894
	   10 B(4,1,5)        =    107.714261    -0.000000    -0.000101   107.714160
	 ---------------------------------------------------------------------------
	Successfully symmetrized geometry.

  ==> Convergence Check <==

  Measures of convergence in internal coordinates in au.
  Criteria marked as inactive (o), active & met (*), and active & unmet ( ).
  ---------------------------------------------------------------------------------------------
   Step     Total Energy     Delta E     MAX Force     RMS Force      MAX Disp      RMS Disp   
  ---------------------------------------------------------------------------------------------
    Convergence Criteria             o    2.00e-06 *    1.00e-06 *    6.00e-06 *    4.00e-06 *
  ---------------------------------------------------------------------------------------------
     10   -1384.31495370    2.33e-09 o    4.47e-07 *    2.18e-07 *    1.76e-06 *    6.62e-07 *  ~
  ---------------------------------------------------------------------------------------------


  **** Optimization is complete! (in 10 steps) ****

  ==> Optimization Summary <==

  Measures of convergence in internal coordinates in au.
  --------------------------------------------------------------------------------------------------------------- ~
   Step         Total Energy             Delta E       MAX Force       RMS Force        MAX Disp        RMS Disp  ~
  --------------------------------------------------------------------------------------------------------------- ~
      1   -1384.291972964038  -1384.291972964038      0.09084989      0.05318268      0.05591703      0.03426632  ~
      2   -1384.304802743897     -0.012829779859      0.06492822      0.03754919      0.12809379      0.06907228  ~
      3   -1384.314168332974     -0.009365589078      0.01900651      0.01020353      0.03266497      0.01945808  ~
      4   -1384.314895766983     -0.000727434008      0.00696489      0.00330674      0.00586515      0.00417861  ~
      5   -1384.314945415208     -0.000049648225      0.00173192      0.00095965      0.00211952      0.00115735  ~
      6   -1384.314952003020     -0.000006587813      0.00099999      0.00051024      0.00110858      0.00068246  ~
      7   -1384.314953674188     -0.000001671168      0.00004907      0.00003419      0.00018032      0.00009907  ~
      8   -1384.314953700556     -0.000000026368      0.00001201      0.00000535      0.00004741      0.00001741  ~
      9   -1384.314953700671     -0.000000000115      0.00000179      0.00000098      0.00000759      0.00000356  ~
     10   -1384.314953698345      0.000000002326      0.00000045      0.00000022      0.00000176      0.00000066  ~
  --------------------------------------------------------------------------------------------------------------- ~

	Writing optimization data to binary file.
	Final energy is  -1384.3149536983453
	Final (previous) structure:
	Cartesian Geometry (in Angstrom)
	   CR    -0.0009684433   0.0644495497  -0.0141851745
	    O     0.9843039846   0.7688994939  -0.8898039100
	    O    -1.0115273073   1.0428316921   0.4910461410
	    F    -0.7266159305  -1.0867799962  -0.8346299630
	    F     0.7521831403  -0.6147328938   1.2091288908
	Saving final (previous) structure.
			--------------------------
			 OPTKING Finished Execution 
			--------------------------

    Final optimized geometry and variables:
    Molecular point group: c1
    Full point group: C1

    Geometry (in Angstrom), charge = 0, multiplicity = 1:

    CR          -0.000968443343     0.064449549977    -0.014185174553
    O            0.984303988455     0.768899496895    -0.889803913486
    O           -1.011527311240     1.042831696176     0.491046142893
    F           -0.726615933402    -1.086780000493    -0.834629966291
    F            0.752183143285    -0.614732896249     1.209128895534

	Removing binary optimization data file.
	Cleaning optimization helper files.

    Psi4 stopped on: Saturday, 10 July 2021 02:56PM
    Psi4 wall time for execution: 0:00:38.70

*** Psi4 exiting successfully. Buy a developer a beer!
