
    -----------------------------------------------------------------------
          Psi4: An Open-Source Ab Initio Electronic Structure Package
                               Psi4 1.3.2 release

                         Git: Rev {} zzzzzzz 


    R. M. Parrish, L. A. Burns, D. G. A. Smith, A. C. Simmonett,
    A. E. DePrince III, E. G. Hohenstein, U. Bozkaya, A. Yu. Sokolov,
    R. Di Remigio, R. M. Richard, J. F. Gonthier, A. M. James,
    H. R. McAlexander, A. Kumar, M. Saitow, X. Wang, B. P. Pritchard,
    P. Verma, H. F. Schaefer III, K. Patkowski, R. A. King, E. F. Valeev,
    F. A. Evangelista, J. M. Turney, T. D. Crawford, and C. D. Sherrill,
    J. Chem. Theory Comput. 13(7) pp 3185--3197 (2017).
    (doi: 10.1021/acs.jctc.7b00174)


                         Additional Contributions by
    P. Kraus, H. Kruse, M. H. Lechner, M. C. Schieber, R. A. Shaw,
    A. Alenaizan, R. Galvelis, Z. L. Glick, S. Lehtola, and J. P. Misiewicz

    -----------------------------------------------------------------------


    Psi4 started on: Saturday, 10 July 2021 03:23PM

    Process ID: 1919020
    Host:       thinkpad
    PSIDATADIR: /usr/share/psi4
    Memory:     500.0 MiB
    Threads:    4
    
  ==> Input File <==

--------------------------------------------------------------------------
memory 8 gb

molecule {
symmetry c1
Cr        0.48028725377749    0.32716919378518    0.12128381663197
O         1.51332165941332    1.03448648135578   -0.78955553051410
O        -0.57831537187616    1.32157128739802    0.65757817076212
F        -0.29602430869141   -0.85637252313759   -0.76598418135575
F         1.28459076737678   -0.35182443940140    1.41848772447575
}

set basis def2-QZVP
set geom_maxiter 250

# Use a (75,302) quadrature grid
set dft_radial_points 75
set dft_spherical_points 302

# Very tight geometry optimization
set g_convergence gau_verytight
# Increase allowed number of geometry optimization steps
set geom_maxiter 250

# Use the Hueckel type guess
set guess huckel

my_dft = {
    "name": "my r2scan",
    "x_functionals": {"mgga_x_r2scan": {}},
    "c_functionals": {"mgga_c_r2scan": {}}
}
optimize('scf', dft_functional=my_dft)
--------------------------------------------------------------------------

  Memory set to   7.451 GiB by Python driver.
gradient() will perform analytic gradient computation.

*** tstart() called on thinkpad
*** at Sat Jul 10 15:23:06 2021

   => Loading Basis Set <=

    Name: DEF2-QZVP
    Role: ORBITAL
    Keyword: BASIS
    atoms 1   entry CR         line  1332 file /usr/share/psi4/basis/def2-qzvp.gbs 
    atoms 2-3 entry O          line   290 file /usr/share/psi4/basis/def2-qzvp.gbs 
    atoms 4-5 entry F          line   338 file /usr/share/psi4/basis/def2-qzvp.gbs 


         ---------------------------------------------------------
                                   SCF
               by Justin Turney, Rob Parrish, Andy Simmonett
                          and Daniel G. A. Smith
                              RKS Reference
                        4 Threads,   7629 MiB Core
         ---------------------------------------------------------

  ==> Geometry <==

    Molecular point group: c1
    Full point group: C1

    Geometry (in Angstrom), charge = 0, multiplicity = 1:

       Center              X                  Y                   Z               Mass       
    ------------   -----------------  -----------------  -----------------  -----------------
         CR          -0.001007494106     0.066977222278    -0.014740872913    51.940506230000
         O            1.032026911530     0.774294509849    -0.925580220059    15.994914619570
         O           -1.059610119760     1.061379315891     0.521553481217    15.994914619570
         F           -0.777319056575    -1.116564494645    -0.902008870901    18.998403162730
         F            0.803296019493    -0.612016410908     1.282463034931    18.998403162730

  Running in c1 symmetry.

  Rotational constants: A =      0.15233  B =      0.13609  C =      0.12992 [cm^-1]
  Rotational constants: A =   4566.71939  B =   4079.72696  C =   3895.02954 [MHz]
  Nuclear repulsion =  355.181605515257786

  Charge       = 0
  Multiplicity = 1
  Electrons    = 58
  Nalpha       = 29
  Nbeta        = 29

  ==> Algorithm <==

  SCF Algorithm Type is DF.
  DIIS enabled.
  MOM disabled.
  Fractional occupation disabled.
  Guess Type is HUCKEL.
  Energy threshold   = 1.00e-08
  Density threshold  = 1.00e-08
  Integral threshold = 0.00e+00

  ==> Primary Basis <==

  Basis Set: DEF2-QZVP
    Blend: DEF2-QZVP
    Number of shells: 94
    Number of basis function: 312
    Number of Cartesian functions: 392
    Spherical Harmonics?: true
    Max angular momentum: 4

  ==> DFT Potential <==

   => Composite Functional: MY R2SCAN <= 

    Re-regularized SCAN exchange by Furness et al
    Re-regularized SCAN correlation by Furness et al
    J. W. Furness, A. D. Kaplan, J. Ning, J. P. Perdew, and J. Sun, J. Phys. Chem. Lett. 11, 8208 (2020)
    J. W. Furness, A. D. Kaplan, J. Ning, J. P. Perdew, and J. Sun, J. Phys. Chem. Lett. 11, 9248 (2020)

    Deriv               =              1
    GGA                 =           TRUE
    Meta                =           TRUE

    Exchange Hybrid     =          FALSE
    MP2 Hybrid          =          FALSE

   => Exchange Functionals <=

    1.0000   XC_mgga_x_r2scan

   => Correlation Functionals <=

    1.0000   XC_mgga_c_r2scan

   => Molecular Quadrature <=

    Radial Scheme          =       TREUTLER
    Pruning Scheme         =           FLAT
    Nuclear Scheme         =       TREUTLER

    BS radius alpha        =              1
    Pruning alpha          =              1
    Radial Points          =             75
    Spherical Points       =            302
    Total Points           =         113250
    Total Blocks           =            920
    Max Points             =            256
    Max Functions          =            294

   => Loading Basis Set <=

    Name: (DEF2-QZVP AUX)
    Role: JKFIT
    Keyword: DF_BASIS_SCF
    atoms 1   entry CR         line  1731 file /usr/share/psi4/basis/def2-qzvp-jkfit.gbs 
    atoms 2-3 entry O          line   323 file /usr/share/psi4/basis/def2-qzvp-jkfit.gbs 
    atoms 4-5 entry F          line   383 file /usr/share/psi4/basis/def2-qzvp-jkfit.gbs 

  ==> Pre-Iterations <==

   -------------------------------------------------------
    Irrep   Nso     Nmo     Nalpha   Nbeta   Ndocc  Nsocc
   -------------------------------------------------------
     A        312     312       0       0       0       0
   -------------------------------------------------------
    Total     312     312      29      29      29       0
   -------------------------------------------------------

  ==> Integral Setup <==

  DFHelper Memory: AOs need 0.425 GiB; user supplied 3.968 GiB. Using in-core AOs.

  ==> MemDFJK: Density-Fitted J/K Matrices <==

    J tasked:                   Yes
    K tasked:                    No
    wK tasked:                   No
    OpenMP threads:               4
    Memory [MiB]:              4063
    Algorithm:                 Core
    Schwarz Cutoff:           1E-12
    Mask sparsity (%):       5.6932
    Fitting Condition:        1E-10

   => Auxiliary Basis Set <=

  Basis Set: (DEF2-QZVP AUX)
    Blend: DEF2-QZVP-JKFIT
    Number of shells: 158
    Number of basis function: 572
    Number of Cartesian functions: 749
    Spherical Harmonics?: true
    Max angular momentum: 6

  Cached 100.0% of DFT collocation blocks in 1.620 [GiB].

  Minimum eigenvalue in the overlap matrix is 3.5411475464E-04.
  Using Symmetric Orthogonalization.

  SCF Guess: Huckel guess via on-the-fly atomic UHF (doi:10.1021/acs.jctc.8b01089).

  ==> Iterations <==

                           Total Energy        Delta E     RMS |[F,P]|

   @DF-RKS iter   1: -1393.74702761615481   -1.39375e+03   8.23484e-03 DIIS
   @DF-RKS iter   2: -1376.82517962324346    1.69218e+01   2.44845e-02 DIIS
   @DF-RKS iter   3: -1393.29844921982749   -1.64733e+01   6.60357e-03 DIIS
   @DF-RKS iter   4: -1389.85033856463997    3.44811e+00   1.37678e-02 DIIS
   @DF-RKS iter   5: -1393.51681364390470   -3.66648e+00   7.34716e-03 DIIS
   @DF-RKS iter   6: -1393.51602479694384    7.88847e-04   6.93725e-03 DIIS
   @DF-RKS iter   7: -1394.40553850550123   -8.89514e-01   3.81762e-03 DIIS
   @DF-RKS iter   8: -1394.74858953170246   -3.43051e-01   8.53526e-04 DIIS
   @DF-RKS iter   9: -1394.76670045403739   -1.81109e-02   2.63778e-04 DIIS
   @DF-RKS iter  10: -1394.76767329197401   -9.72838e-04   1.45778e-04 DIIS
   @DF-RKS iter  11: -1394.76846686002068   -7.93568e-04   2.68474e-05 DIIS
   @DF-RKS iter  12: -1394.76849296829641   -2.61083e-05   2.10948e-06 DIIS
   @DF-RKS iter  13: -1394.76849305847486   -9.01784e-08   8.37984e-07 DIIS
   @DF-RKS iter  14: -1394.76849307402131   -1.55464e-08   3.10901e-07 DIIS
   @DF-RKS iter  15: -1394.76849307634211   -2.32080e-09   9.10526e-08 DIIS
   @DF-RKS iter  16: -1394.76849307657631   -2.34195e-10   3.42860e-08 DIIS
   @DF-RKS iter  17: -1394.76849307660768   -3.13776e-11   6.03983e-09 DIIS
  Energy and wave function converged.


  ==> Post-Iterations <==

    Orbital Energies [Eh]
    ---------------------

    Doubly Occupied:                                                      

       1A   -215.487531     2A    -24.788317     3A    -24.533342  
       4A    -24.533342     5A    -21.060203     6A    -21.060018  
       7A    -21.056533     8A    -19.042354     9A    -19.042353  
      10A     -3.021098    11A     -1.972336    12A     -1.971719  
      13A     -1.967795    14A     -1.171439    15A     -1.165886  
      16A     -0.952240    17A     -0.939854    18A     -0.500508  
      19A     -0.494240    20A     -0.475512    21A     -0.474634  
      22A     -0.472610    23A     -0.434132    24A     -0.430478  
      25A     -0.411557    26A     -0.386956    27A     -0.377515  
      28A     -0.373610    29A     -0.334302  

    Virtual:                                                              

      30A     -0.213576    31A     -0.195825    32A     -0.166219  
      33A     -0.126217    34A     -0.108601    35A      0.003227  
      36A      0.038657    37A      0.039010    38A      0.039219  
      39A      0.126083    40A      0.138294    41A      0.139744  
      42A      0.139973    43A      0.142841    44A      0.143132  
      45A      0.174958    46A      0.180184    47A      0.185942  
      48A      0.344775    49A      0.357755    50A      0.373957  
      51A      0.382051    52A      0.392211    53A      0.402633  
      54A      0.410097    55A      0.418292    56A      0.423864  
      57A      0.431100    58A      0.443933    59A      0.485839  
      60A      0.500882    61A      0.509014    62A      0.513336  
      63A      0.519681    64A      0.521242    65A      0.525248  
      66A      0.544027    67A      0.575086    68A      0.579194  
      69A      0.909140    70A      0.913099    71A      0.983301  
      72A      0.983973    73A      0.994861    74A      1.034678  
      75A      1.040264    76A      1.126115    77A      1.136861  
      78A      1.142315    79A      1.145632    80A      1.153137  
      81A      1.199627    82A      1.231300    83A      1.285739  
      84A      1.298615    85A      1.359651    86A      1.361465  
      87A      1.370654    88A      1.371314    89A      1.399554  
      90A      1.404792    91A      1.405004    92A      1.412330  
      93A      1.429190    94A      1.495373    95A      1.511259  
      96A      1.538151    97A      1.553199    98A      1.574439  
      99A      1.617827   100A      1.627431   101A      1.674156  
     102A      1.692654   103A      1.704659   104A      1.748036  
     105A      1.749303   106A      1.784370   107A      1.787997  
     108A      1.810172   109A      1.913915   110A      1.942239  
     111A      1.984997   112A      2.197074   113A      2.221428  
     114A      2.249357   115A      2.278579   116A      2.370971  
     117A      2.574186   118A      2.611363   119A      2.866240  
     120A      2.934208   121A      2.984560   122A      3.016788  
     123A      3.042190   124A      3.102755   125A      3.137354  
     126A      3.181370   127A      3.227102   128A      3.234952  
     129A      3.260125   130A      3.301138   131A      3.317930  
     132A      3.387805   133A      3.424517   134A      3.433344  
     135A      3.639030   136A      3.653234   137A      3.727148  
     138A      3.746122   139A      3.799108   140A      3.828474  
     141A      3.879262   142A      3.909370   143A      3.927072  
     144A      3.933411   145A      4.031292   146A      4.033152  
     147A      4.086990   148A      4.147565   149A      4.159781  
     150A      4.162388   151A      4.174440   152A      4.219747  
     153A      4.247243   154A      4.253333   155A      4.275782  
     156A      4.291829   157A      4.338697   158A      4.365599  
     159A      4.413307   160A      4.419767   161A      4.441657  
     162A      4.456060   163A      4.531834   164A      4.534947  
     165A      4.552835   166A      4.700864   167A      4.807040  
     168A      4.820579   169A      4.899241   170A      4.971402  
     171A      5.006040   172A      5.030305   173A      5.078666  
     174A      5.103217   175A      5.123472   176A      5.147543  
     177A      5.150256   178A      5.169470   179A      5.182777  
     180A      5.205335   181A      5.242576   182A      5.389830  
     183A      5.424750   184A      5.447677   185A      5.495376  
     186A      5.535849   187A      5.610520   188A      5.833138  
     189A      5.846030   190A      5.941904   191A      6.044332  
     192A      6.096039   193A      6.216483   194A      6.237026  
     195A      6.272082   196A      6.373447   197A      6.441996  
     198A      6.484587   199A      6.495032   200A      6.508831  
     201A      6.661607   202A      6.724503   203A      6.950052  
     204A      7.194965   205A      7.234269   206A      9.009747  
     207A      9.012139   208A      9.024370   209A      9.024548  
     210A      9.024864   211A      9.025447   212A      9.025528  
     213A      9.039585   214A      9.053406   215A      9.088111  
     216A      9.112794   217A      9.123578   218A      9.269207  
     219A      9.283563   220A      9.288075   221A      9.382514  
     222A      9.383660   223A      9.478628   224A      9.530060  
     225A     10.931797   226A     10.992732   227A     11.028722  
     228A     11.051912   229A     11.070186   230A     11.092145  
     231A     11.102964   232A     11.132671   233A     11.154426  
     234A     11.208136   235A     11.254214   236A     11.275131  
     237A     11.277551   238A     11.347763   239A     11.358864  
     240A     11.579589   241A     11.589183   242A     11.594292  
     243A     11.594937   244A     11.605213   245A     11.606473  
     246A     11.606602   247A     11.606625   248A     11.607025  
     249A     11.607887   250A     11.614090   251A     11.614195  
     252A     11.645787   253A     11.661364   254A     11.666344  
     255A     11.725419   256A     11.774797   257A     11.825984  
     258A     11.850762   259A     11.892886   260A     11.995015  
     261A     12.007042   262A     12.087244   263A     12.117835  
     264A     12.137981   265A     12.142258   266A     12.165687  
     267A     12.210486   268A     12.365846   269A     12.382237  
     270A     12.430314   271A     12.506301   272A     12.749064  
     273A     12.950879   274A     13.848562   275A     13.996218  
     276A     14.738055   277A     14.744391   278A     14.758566  
     279A     14.759121   280A     14.830813   281A     14.833282  
     282A     14.844164   283A     14.888048   284A     15.025029  
     285A     15.026777   286A     15.030052   287A     15.060784  
     288A     15.065458   289A     15.124877   290A     15.734548  
     291A     15.771763   292A     15.948686   293A     15.981089  
     294A     15.996154   295A     16.043176   296A     16.230054  
     297A     16.296245   298A     16.330037   299A     16.344605  
     300A     16.772633   301A     16.780252   302A     29.799519  
     303A     47.667705   304A     47.884646   305A     54.444187  
     306A     54.550278   307A     98.791315   308A    253.314393  
     309A    253.557208   310A    285.908174   311A    286.038636  
     312A    624.051122  

    Final Occupation by Irrep:
              A 
    DOCC [    29 ]

  @DF-RKS Final Energy: -1394.76849307660768

   => Energetics <=

    Nuclear Repulsion Energy =            355.1816055152577860
    One-Electron Energy =               -2627.2266242079167569
    Two-Electron Energy =                 963.6917530442730140
    DFT Exchange-Correlation Energy =     -86.4152274282214705
    Empirical Dispersion Energy =           0.0000000000000000
    VV10 Nonlocal Energy =                  0.0000000000000000
    Total Energy =                      -1394.7684930766076832

Computation Completed


Properties will be evaluated at   0.000000,   0.000000,   0.000000 [a0]

Properties computed using the SCF density matrix

  Nuclear Dipole Moment: [e a0]
     X:    -0.0209      Y:     1.3901      Z:    -0.3060

  Electronic Dipole Moment: [e a0]
     X:     0.0229      Y:    -1.5252      Z:     0.3357

  Dipole Moment: [e a0]
     X:     0.0020      Y:    -0.1351      Z:     0.0297     Total:     0.1384

  Dipole Moment: [D]
     X:     0.0052      Y:    -0.3434      Z:     0.0756     Total:     0.3517


*** tstop() called on thinkpad at Sat Jul 10 15:23:38 2021
Module time:
	user time   =     106.86 seconds =       1.78 minutes
	system time =       1.19 seconds =       0.02 minutes
	total time  =         32 seconds =       0.53 minutes
Total time:
	user time   =     106.86 seconds =       1.78 minutes
	system time =       1.19 seconds =       0.02 minutes
	total time  =         32 seconds =       0.53 minutes

*** tstart() called on thinkpad
*** at Sat Jul 10 15:23:38 2021


         ------------------------------------------------------------
                                   SCF GRAD                          
                          Rob Parrish, Justin Turney,                
                       Andy Simmonett, and Alex Sokolov              
         ------------------------------------------------------------

  ==> Geometry <==

    Molecular point group: c1
    Full point group: C1

    Geometry (in Angstrom), charge = 0, multiplicity = 1:

       Center              X                  Y                   Z               Mass       
    ------------   -----------------  -----------------  -----------------  -----------------
         CR          -0.001007494106     0.066977222278    -0.014740872913    51.940506230000
         O            1.032026911530     0.774294509849    -0.925580220059    15.994914619570
         O           -1.059610119760     1.061379315891     0.521553481217    15.994914619570
         F           -0.777319056575    -1.116564494645    -0.902008870901    18.998403162730
         F            0.803296019493    -0.612016410908     1.282463034931    18.998403162730

  Nuclear repulsion =  355.181605515257786

  ==> Basis Set <==

  Basis Set: DEF2-QZVP
    Blend: DEF2-QZVP
    Number of shells: 94
    Number of basis function: 312
    Number of Cartesian functions: 392
    Spherical Harmonics?: true
    Max angular momentum: 4

  ==> DFJKGrad: Density-Fitted SCF Gradients <==

    Gradient:                    1
    J tasked:                  Yes
    K tasked:                   No
    wK tasked:                  No
    OpenMP threads:              4
    Integrals threads:           4
    Memory [MiB]:             5722
    Schwarz Cutoff:          0E+00
    Fitting Condition:       1E-10

   => Auxiliary Basis Set <=

  Basis Set: (DEF2-QZVP AUX)
    Blend: DEF2-QZVP-JKFIT
    Number of shells: 158
    Number of basis function: 572
    Number of Cartesian functions: 749
    Spherical Harmonics?: true
    Max angular momentum: 6

  ==> DFT Potential <==

   => Composite Functional: MY R2SCAN <= 

    Re-regularized SCAN exchange by Furness et al
    Re-regularized SCAN correlation by Furness et al
    J. W. Furness, A. D. Kaplan, J. Ning, J. P. Perdew, and J. Sun, J. Phys. Chem. Lett. 11, 8208 (2020)
    J. W. Furness, A. D. Kaplan, J. Ning, J. P. Perdew, and J. Sun, J. Phys. Chem. Lett. 11, 9248 (2020)

    Deriv               =              1
    GGA                 =           TRUE
    Meta                =           TRUE

    Exchange Hybrid     =          FALSE
    MP2 Hybrid          =          FALSE

   => Exchange Functionals <=

    1.0000   XC_mgga_x_r2scan

   => Correlation Functionals <=

    1.0000   XC_mgga_c_r2scan

   => Molecular Quadrature <=

    Radial Scheme          =       TREUTLER
    Pruning Scheme         =           FLAT
    Nuclear Scheme         =       TREUTLER

    BS radius alpha        =              1
    Pruning alpha          =              1
    Radial Points          =             75
    Spherical Points       =            302
    Total Points           =         113250
    Total Blocks           =            920
    Max Points             =            256
    Max Functions          =            294


  -Total Gradient:
     Atom            X                  Y                   Z
    ------   -----------------  -----------------  -----------------
       1        0.000148125765    -0.009883897888     0.002175714943
       2       -0.005337067479    -0.011754740973     0.006576801113
       3        0.005713207992    -0.013270983820    -0.001068677818
       4        0.011609485002     0.019095965035     0.012991378468
       5       -0.012069524749     0.011537472609    -0.019734025403


*** tstop() called on thinkpad at Sat Jul 10 15:23:46 2021
Module time:
	user time   =      27.55 seconds =       0.46 minutes
	system time =       0.18 seconds =       0.00 minutes
	total time  =          8 seconds =       0.13 minutes
Total time:
	user time   =     134.42 seconds =       2.24 minutes
	system time =       1.37 seconds =       0.02 minutes
	total time  =         40 seconds =       0.67 minutes

			-----------------------------------------
			 OPTKING 2.0: for geometry optimizations 
			  - R.A. King,  Bethel University        
			-----------------------------------------

	Internal coordinates to be generated automatically.
	Detected frag 1 with atoms:  1 2 3 4 5
	---Fragment 1 Bond Connectivity---
	 1 : 2 3 4 5
	 2 : 1
	 3 : 1
	 4 : 1
	 5 : 1

	---Fragment 1 Geometry and Gradient---
	 CR         -0.0019038879        0.1265686067       -0.0278562127
	 O           1.9502482169        1.4632045641       -1.7490931231
	 O          -2.0023729261        2.0057162223        0.9855932393
	 F          -1.4689201290       -2.1100010963       -1.7045497287
	 F           1.5180094745       -1.1565434009        2.4235039020
	             0.0001481258       -0.0098838979        0.0021757149
	            -0.0053370675       -0.0117547410        0.0065768011
	             0.0057132080       -0.0132709838       -0.0010686778
	             0.0116094850        0.0190959650        0.0129913785
	            -0.0120695247        0.0115374726       -0.0197340254

	Previous optimization step data not found.  Starting new optimization.

	---Fragment 1 Intrafragment Coordinates---
	 - Coordinate -           - BOHR/RAD -       - ANG/DEG -
	 R(1,2)           =         2.925773	       1.548253
	 R(1,3)           =         2.925774	       1.548253
	 R(1,4)           =         3.156847	       1.670531
	 R(1,5)           =         3.156846	       1.670531
	 B(2,1,3)         =         1.946113	     111.504060
	 B(2,1,4)         =         1.897868	     108.739823
	 B(2,1,5)         =         1.897867	     108.739770
	 B(3,1,4)         =         1.897872	     108.740061
	 B(3,1,5)         =         1.897872	     108.740055
	 B(4,1,5)         =         1.926457	     110.377858

	Current energy   :     -1394.7684930766

	Generating empirical Hessian (Schlegel '84) for each fragment.
	Taking RFO optimization step.
	Going to follow RFO solution 1.
	Using RFO vector 1.
	Norm of target step-size    0.06963
	Projected energy change by RFO approximation:        -0.0016943138

	Back-transformation to cartesian coordinates...
	Successfully converged to displaced geometry.

	--- Internal Coordinate Step in ANG or DEG, aJ/ANG or AJ/DEG ---
	 ---------------------------------------------------------------------------
	   Coordinate                Previous        Force       Change         New 
	   ----------                --------       ------       ------       ------
	    1 R(1,2)          =      1.548253     0.101397     0.002369     1.550621
	    2 R(1,3)          =      1.548253     0.101396     0.002369     1.550621
	    3 R(1,4)          =      1.670531     0.216878     0.010354     1.680885
	    4 R(1,5)          =      1.670531     0.216879     0.010354     1.680885
	    5 B(2,1,3)        =    111.504060    -0.001051    -3.130415   108.373645
	    6 B(2,1,4)        =    108.739823     0.000300     0.891062   109.630885
	    7 B(2,1,5)        =    108.739770     0.000300     0.891111   109.630881
	    8 B(3,1,4)        =    108.740061     0.000300     0.890855   109.630915
	    9 B(3,1,5)        =    108.740055     0.000300     0.890869   109.630924
	   10 B(4,1,5)        =    110.377858    -0.000156    -0.457889   109.919970
	 ---------------------------------------------------------------------------
	Successfully symmetrized geometry.

  ==> Convergence Check <==

  Measures of convergence in internal coordinates in au.
  Criteria marked as inactive (o), active & met (*), and active & unmet ( ).
  --------------------------------------------------------------------------------------------- ~
   Step     Total Energy     Delta E     MAX Force     RMS Force      MAX Disp      RMS Disp    ~
  --------------------------------------------------------------------------------------------- ~
    Convergence Criteria             o    2.00e-06 *    1.00e-06 *    6.00e-06 *    4.00e-06 *  ~
  --------------------------------------------------------------------------------------------- ~
      1   -1394.76849308   -1.39e+03 o    2.63e-02      1.39e-02      5.46e-02      2.20e-02    ~
  ---------------------------------------------------------------------------------------------

	Writing optimization data to binary file.
	Structure for next step:
	Cartesian Geometry (in Angstrom)
	   CR    -0.0008618067   0.0573679761  -0.0126265968
	    O     1.0133739089   0.8023665058  -0.9185677049
	    O    -1.0417246761   1.0844337242   0.5032872144
	    F    -0.7796907197  -1.1381792544  -0.9011468508
	    F     0.8062895542  -0.6319188100   1.2907404905
			--------------------------
			 OPTKING Finished Execution 
			--------------------------

    Structure for next step:
    Molecular point group: c1
    Full point group: C1

    Geometry (in Angstrom), charge = 0, multiplicity = 1:

    CR          -0.000920075934     0.061223609733    -0.013475047952
    O            1.013315643637     0.806222142417    -0.919416159636
    O           -1.041782949499     1.088289361935     0.502438765282
    F           -0.779748992067    -1.134323625477    -0.901995305452
    F            0.806231288088    -0.628063179028     1.289892044454

gradient() will perform analytic gradient computation.

*** tstart() called on thinkpad
*** at Sat Jul 10 15:23:46 2021

   => Loading Basis Set <=

    Name: DEF2-QZVP
    Role: ORBITAL
    Keyword: BASIS
    atoms 1   entry CR         line  1332 file /usr/share/psi4/basis/def2-qzvp.gbs 
    atoms 2-3 entry O          line   290 file /usr/share/psi4/basis/def2-qzvp.gbs 
    atoms 4-5 entry F          line   338 file /usr/share/psi4/basis/def2-qzvp.gbs 


         ---------------------------------------------------------
                                   SCF
               by Justin Turney, Rob Parrish, Andy Simmonett
                          and Daniel G. A. Smith
                              RKS Reference
                        4 Threads,   7629 MiB Core
         ---------------------------------------------------------

  ==> Geometry <==

    Molecular point group: c1
    Full point group: C1

    Geometry (in Angstrom), charge = 0, multiplicity = 1:

       Center              X                  Y                   Z               Mass       
    ------------   -----------------  -----------------  -----------------  -----------------
         CR          -0.000920075934     0.061223609733    -0.013475047952    51.940506230000
         O            1.013315643637     0.806222142417    -0.919416159636    15.994914619570
         O           -1.041782949499     1.088289361935     0.502438765282    15.994914619570
         F           -0.779748992067    -1.134323625477    -0.901995305452    18.998403162730
         F            0.806231288088    -0.628063179028     1.289892044454    18.998403162730

  Running in c1 symmetry.

  Rotational constants: A =      0.15075  B =      0.13756  C =      0.12655 [cm^-1]
  Rotational constants: A =   4519.28541  B =   4123.95365  C =   3793.79635 [MHz]
  Nuclear repulsion =  353.769678428983184

  Charge       = 0
  Multiplicity = 1
  Electrons    = 58
  Nalpha       = 29
  Nbeta        = 29

  ==> Algorithm <==

  SCF Algorithm Type is DF.
  DIIS enabled.
  MOM disabled.
  Fractional occupation disabled.
  Guess Type is READ.
  Energy threshold   = 1.00e-08
  Density threshold  = 1.00e-08
  Integral threshold = 0.00e+00

  ==> Primary Basis <==

  Basis Set: DEF2-QZVP
    Blend: DEF2-QZVP
    Number of shells: 94
    Number of basis function: 312
    Number of Cartesian functions: 392
    Spherical Harmonics?: true
    Max angular momentum: 4

  ==> DFT Potential <==

   => Composite Functional: MY R2SCAN <= 

    Re-regularized SCAN exchange by Furness et al
    Re-regularized SCAN correlation by Furness et al
    J. W. Furness, A. D. Kaplan, J. Ning, J. P. Perdew, and J. Sun, J. Phys. Chem. Lett. 11, 8208 (2020)
    J. W. Furness, A. D. Kaplan, J. Ning, J. P. Perdew, and J. Sun, J. Phys. Chem. Lett. 11, 9248 (2020)

    Deriv               =              1
    GGA                 =           TRUE
    Meta                =           TRUE

    Exchange Hybrid     =          FALSE
    MP2 Hybrid          =          FALSE

   => Exchange Functionals <=

    1.0000   XC_mgga_x_r2scan

   => Correlation Functionals <=

    1.0000   XC_mgga_c_r2scan

   => Molecular Quadrature <=

    Radial Scheme          =       TREUTLER
    Pruning Scheme         =           FLAT
    Nuclear Scheme         =       TREUTLER

    BS radius alpha        =              1
    Pruning alpha          =              1
    Radial Points          =             75
    Spherical Points       =            302
    Total Points           =         113250
    Total Blocks           =            923
    Max Points             =            256
    Max Functions          =            292

   => Loading Basis Set <=

    Name: (DEF2-QZVP AUX)
    Role: JKFIT
    Keyword: DF_BASIS_SCF
    atoms 1   entry CR         line  1731 file /usr/share/psi4/basis/def2-qzvp-jkfit.gbs 
    atoms 2-3 entry O          line   323 file /usr/share/psi4/basis/def2-qzvp-jkfit.gbs 
    atoms 4-5 entry F          line   383 file /usr/share/psi4/basis/def2-qzvp-jkfit.gbs 

   => Loading Basis Set <=

    Name: DEF2-QZVP
    Role: ORBITAL
    Keyword: BASIS
    atoms 1   entry CR         line  1332 file /usr/share/psi4/basis/def2-qzvp.gbs 
    atoms 2-3 entry O          line   290 file /usr/share/psi4/basis/def2-qzvp.gbs 
    atoms 4-5 entry F          line   338 file /usr/share/psi4/basis/def2-qzvp.gbs 

  Reading orbitals from file 180, no projection.

  ==> Pre-Iterations <==

   -------------------------------------------------------
    Irrep   Nso     Nmo     Nalpha   Nbeta   Ndocc  Nsocc
   -------------------------------------------------------
     A        312     312       0       0       0       0
   -------------------------------------------------------
    Total     312     312      29      29      29       0
   -------------------------------------------------------

  ==> Integral Setup <==

  DFHelper Memory: AOs need 0.424 GiB; user supplied 3.974 GiB. Using in-core AOs.

  ==> MemDFJK: Density-Fitted J/K Matrices <==

    J tasked:                   Yes
    K tasked:                    No
    wK tasked:                   No
    OpenMP threads:               4
    Memory [MiB]:              4069
    Algorithm:                 Core
    Schwarz Cutoff:           1E-12
    Mask sparsity (%):       5.9213
    Fitting Condition:        1E-10

   => Auxiliary Basis Set <=

  Basis Set: (DEF2-QZVP AUX)
    Blend: DEF2-QZVP-JKFIT
    Number of shells: 158
    Number of basis function: 572
    Number of Cartesian functions: 749
    Spherical Harmonics?: true
    Max angular momentum: 6

  Cached 100.0% of DFT collocation blocks in 1.614 [GiB].

  Minimum eigenvalue in the overlap matrix is 3.5142581405E-04.
  Using Symmetric Orthogonalization.

  SCF Guess: Orbitals guess was supplied from a previous computation.

  ==> Iterations <==

                           Total Energy        Delta E     RMS |[F,P]|

   @DF-RKS iter   0: -1394.75388094986488   -1.39475e+03   3.18736e-04 
   @DF-RKS iter   1: -1394.76853941876948   -1.46585e-02   2.29672e-04 DIIS
   @DF-RKS iter   2: -1394.68439695475081    8.41425e-02   1.76074e-03 DIIS
   @DF-RKS iter   3: -1394.76970145745690   -8.53045e-02   9.85032e-05 DIIS
   @DF-RKS iter   4: -1394.76999070719671   -2.89250e-04   3.18944e-05 DIIS
   @DF-RKS iter   5: -1394.77001457414372   -2.38669e-05   1.68426e-05 DIIS
   @DF-RKS iter   6: -1394.77002043655716   -5.86241e-06   6.54527e-06 DIIS
   @DF-RKS iter   7: -1394.77002154819138   -1.11163e-06   1.15457e-06 DIIS
   @DF-RKS iter   8: -1394.77002157502397   -2.68326e-08   7.27464e-07 DIIS
   @DF-RKS iter   9: -1394.77002159222889   -1.72049e-08   2.21062e-08 DIIS
   @DF-RKS iter  10: -1394.77002159223912   -1.02318e-11   1.72679e-08 DIIS
   @DF-RKS iter  11: -1394.77002159224503   -5.91172e-12   1.56640e-09 DIIS
  Energy and wave function converged.


  ==> Post-Iterations <==

    Orbital Energies [Eh]
    ---------------------

    Doubly Occupied:                                                      

       1A   -215.489913     2A    -24.790046     3A    -24.531740  
       4A    -24.531739     5A    -21.062033     6A    -21.061597  
       7A    -21.058500     8A    -19.044258     9A    -19.044257  
      10A     -3.021868    11A     -1.972946    12A     -1.972561  
      13A     -1.967571    14A     -1.169028    15A     -1.163760  
      16A     -0.952478    17A     -0.941954    18A     -0.498570  
      19A     -0.491292    20A     -0.473577    21A     -0.472017  
      22A     -0.471243    23A     -0.433698    24A     -0.428413  
      25A     -0.412032    26A     -0.389102    27A     -0.377680  
      28A     -0.375713    29A     -0.333864  

    Virtual:                                                              

      30A     -0.213434    31A     -0.199153    32A     -0.167332  
      33A     -0.134011    34A     -0.108323    35A      0.002391  
      36A      0.038637    37A      0.038702    38A      0.039324  
      39A      0.124655    40A      0.139004    41A      0.139616  
      42A      0.139804    43A      0.142440    44A      0.142547  
      45A      0.173999    46A      0.183191    47A      0.183978  
      48A      0.344010    49A      0.355352    50A      0.376011  
      51A      0.379827    52A      0.393971    53A      0.401512  
      54A      0.408034    55A      0.417556    56A      0.419141  
      57A      0.429228    58A      0.444906    59A      0.485480  
      60A      0.499289    61A      0.508221    62A      0.512587  
      63A      0.518566    64A      0.520752    65A      0.534271  
      66A      0.542733    67A      0.572548    68A      0.578426  
      69A      0.912011    70A      0.913552    71A      0.975877  
      72A      0.980838    73A      0.998234    74A      1.029991  
      75A      1.030073    76A      1.122348    77A      1.136400  
      78A      1.138818    79A      1.141606    80A      1.144165  
      81A      1.201528    82A      1.247379    83A      1.279456  
      84A      1.290089    85A      1.355044    86A      1.367134  
      87A      1.368217    88A      1.373161    89A      1.395880  
      90A      1.401755    91A      1.406873    92A      1.411422  
      93A      1.429970    94A      1.493000    95A      1.508519  
      96A      1.534721    97A      1.549736    98A      1.560883  
      99A      1.621010   100A      1.623498   101A      1.662873  
     102A      1.684595   103A      1.705479   104A      1.750150  
     105A      1.752519   106A      1.784547   107A      1.788518  
     108A      1.810862   109A      1.906832   110A      1.945265  
     111A      1.985906   112A      2.175318   113A      2.227344  
     114A      2.242659   115A      2.244631   116A      2.355326  
     117A      2.563911   118A      2.613374   119A      2.851801  
     120A      2.929245   121A      2.982849   122A      3.013864  
     123A      3.033578   124A      3.105453   125A      3.140228  
     126A      3.180850   127A      3.217481   128A      3.238059  
     129A      3.254372   130A      3.285645   131A      3.309558  
     132A      3.386566   133A      3.429580   134A      3.441994  
     135A      3.639656   136A      3.649164   137A      3.741524  
     138A      3.756053   139A      3.805908   140A      3.837044  
     141A      3.859400   142A      3.900282   143A      3.924004  
     144A      3.930230   145A      4.026982   146A      4.042363  
     147A      4.101393   148A      4.144781   149A      4.153497  
     150A      4.157712   151A      4.182711   152A      4.218244  
     153A      4.239349   154A      4.243678   155A      4.275966  
     156A      4.291736   157A      4.347961   158A      4.351757  
     159A      4.404653   160A      4.410652   161A      4.442401  
     162A      4.444323   163A      4.515113   164A      4.521928  
     165A      4.535503   166A      4.744412   167A      4.810728  
     168A      4.823773   169A      4.888247   170A      4.949211  
     171A      5.011945   172A      5.027639   173A      5.074751  
     174A      5.090842   175A      5.117445   176A      5.139813  
     177A      5.159769   178A      5.172218   179A      5.176498  
     180A      5.190591   181A      5.249458   182A      5.358323  
     183A      5.414063   184A      5.432571   185A      5.507190  
     186A      5.511395   187A      5.594446   188A      5.806142  
     189A      5.817042   190A      5.939977   191A      6.053025  
     192A      6.054826   193A      6.201892   194A      6.249764  
     195A      6.257483   196A      6.370350   197A      6.424323  
     198A      6.471590   199A      6.478711   200A      6.507774  
     201A      6.622356   202A      6.730193   203A      6.908971  
     204A      7.207258   205A      7.213723   206A      9.008765  
     207A      9.010675   208A      9.023103   209A      9.023395  
     210A      9.023449   211A      9.024165   212A      9.024758  
     213A      9.038138   214A      9.051570   215A      9.093371  
     216A      9.112003   217A      9.121432   218A      9.275899  
     219A      9.276784   220A      9.289244   221A      9.345626  
     222A      9.376875   223A      9.470840   224A      9.520383  
     225A     10.942852   226A     10.995196   227A     11.030319  
     228A     11.044491   229A     11.065965   230A     11.089058  
     231A     11.108321   232A     11.131256   233A     11.150338  
     234A     11.190457   235A     11.258650   236A     11.268695  
     237A     11.273444   238A     11.340250   239A     11.368014  
     240A     11.582081   241A     11.591956   242A     11.596946  
     243A     11.597479   244A     11.606791   245A     11.608550  
     246A     11.608722   247A     11.608919   248A     11.609434  
     249A     11.609932   250A     11.616185   251A     11.616710  
     252A     11.643295   253A     11.657423   254A     11.660497  
     255A     11.711417   256A     11.762324   257A     11.828066  
     258A     11.838731   259A     11.924593   260A     11.964970  
     261A     11.997810   262A     12.089599   263A     12.099078  
     264A     12.118039   265A     12.137689   266A     12.163720  
     267A     12.206147   268A     12.376845   269A     12.386351  
     270A     12.417872   271A     12.476057   272A     12.740546  
     273A     12.939842   274A     13.838097   275A     13.987542  
     276A     14.740156   277A     14.746007   278A     14.758869  
     279A     14.758980   280A     14.829689   281A     14.831329  
     282A     14.835047   283A     14.883790   284A     15.014818  
     285A     15.021730   286A     15.023792   287A     15.054665  
     288A     15.056122   289A     15.127304   290A     15.707914  
     291A     15.738089   292A     15.950147   293A     15.974224  
     294A     15.992251   295A     16.044172   296A     16.226104  
     297A     16.286930   298A     16.311969   299A     16.340516  
     300A     16.758545   301A     16.765498   302A     29.783665  
     303A     47.670317   304A     47.869795   305A     54.442821  
     306A     54.531662   307A     98.775558   308A    253.316621  
     309A    253.540629   310A    285.906816   311A    286.015591  
     312A    624.023121  

    Final Occupation by Irrep:
              A 
    DOCC [    29 ]

  @DF-RKS Final Energy: -1394.77002159224503

   => Energetics <=

    Nuclear Repulsion Energy =            353.7696784289831839
    One-Electron Energy =               -2624.4112427389168261
    Two-Electron Energy =                 962.2743194099865605
    DFT Exchange-Correlation Energy =     -86.4027766922982465
    Empirical Dispersion Energy =           0.0000000000000000
    VV10 Nonlocal Energy =                  0.0000000000000000
    Total Energy =                      -1394.7700215922450298

Computation Completed


Properties will be evaluated at   0.000000,   0.000000,   0.000000 [a0]

Properties computed using the SCF density matrix

  Nuclear Dipole Moment: [e a0]
     X:    -0.0217      Y:     1.4437      Z:    -0.3178

  Electronic Dipole Moment: [e a0]
     X:     0.0235      Y:    -1.5646      Z:     0.3444

  Dipole Moment: [e a0]
     X:     0.0018      Y:    -0.1209      Z:     0.0266     Total:     0.1238

  Dipole Moment: [D]
     X:     0.0046      Y:    -0.3073      Z:     0.0676     Total:     0.3147


*** tstop() called on thinkpad at Sat Jul 10 15:24:08 2021
Module time:
	user time   =      76.17 seconds =       1.27 minutes
	system time =       0.40 seconds =       0.01 minutes
	total time  =         22 seconds =       0.37 minutes
Total time:
	user time   =     210.66 seconds =       3.51 minutes
	system time =       1.78 seconds =       0.03 minutes
	total time  =         62 seconds =       1.03 minutes

*** tstart() called on thinkpad
*** at Sat Jul 10 15:24:08 2021


         ------------------------------------------------------------
                                   SCF GRAD                          
                          Rob Parrish, Justin Turney,                
                       Andy Simmonett, and Alex Sokolov              
         ------------------------------------------------------------

  ==> Geometry <==

    Molecular point group: c1
    Full point group: C1

    Geometry (in Angstrom), charge = 0, multiplicity = 1:

       Center              X                  Y                   Z               Mass       
    ------------   -----------------  -----------------  -----------------  -----------------
         CR          -0.000920075934     0.061223609733    -0.013475047952    51.940506230000
         O            1.013315643637     0.806222142417    -0.919416159636    15.994914619570
         O           -1.041782949499     1.088289361935     0.502438765282    15.994914619570
         F           -0.779748992067    -1.134323625477    -0.901995305452    18.998403162730
         F            0.806231288088    -0.628063179028     1.289892044454    18.998403162730

  Nuclear repulsion =  353.769678428983184

  ==> Basis Set <==

  Basis Set: DEF2-QZVP
    Blend: DEF2-QZVP
    Number of shells: 94
    Number of basis function: 312
    Number of Cartesian functions: 392
    Spherical Harmonics?: true
    Max angular momentum: 4

  ==> DFJKGrad: Density-Fitted SCF Gradients <==

    Gradient:                    1
    J tasked:                  Yes
    K tasked:                   No
    wK tasked:                  No
    OpenMP threads:              4
    Integrals threads:           4
    Memory [MiB]:             5722
    Schwarz Cutoff:          0E+00
    Fitting Condition:       1E-10

   => Auxiliary Basis Set <=

  Basis Set: (DEF2-QZVP AUX)
    Blend: DEF2-QZVP-JKFIT
    Number of shells: 158
    Number of basis function: 572
    Number of Cartesian functions: 749
    Spherical Harmonics?: true
    Max angular momentum: 6

  ==> DFT Potential <==

   => Composite Functional: MY R2SCAN <= 

    Re-regularized SCAN exchange by Furness et al
    Re-regularized SCAN correlation by Furness et al
    J. W. Furness, A. D. Kaplan, J. Ning, J. P. Perdew, and J. Sun, J. Phys. Chem. Lett. 11, 8208 (2020)
    J. W. Furness, A. D. Kaplan, J. Ning, J. P. Perdew, and J. Sun, J. Phys. Chem. Lett. 11, 9248 (2020)

    Deriv               =              1
    GGA                 =           TRUE
    Meta                =           TRUE

    Exchange Hybrid     =          FALSE
    MP2 Hybrid          =          FALSE

   => Exchange Functionals <=

    1.0000   XC_mgga_x_r2scan

   => Correlation Functionals <=

    1.0000   XC_mgga_c_r2scan

   => Molecular Quadrature <=

    Radial Scheme          =       TREUTLER
    Pruning Scheme         =           FLAT
    Nuclear Scheme         =       TREUTLER

    BS radius alpha        =              1
    Pruning alpha          =              1
    Radial Points          =             75
    Spherical Points       =            302
    Total Points           =         113250
    Total Blocks           =            923
    Max Points             =            256
    Max Functions          =            292


  -Total Gradient:
     Atom            X                  Y                   Z
    ------   -----------------  -----------------  -----------------
       1        0.000239155335    -0.015909157057     0.003501711042
       2       -0.005715390023    -0.003886896550     0.005033243703
       3        0.005856014318    -0.005474994683    -0.002972669043
       4        0.008403597303     0.013186578939     0.009530271857
       5       -0.008717821362     0.007721379801    -0.014132247270


*** tstop() called on thinkpad at Sat Jul 10 15:24:16 2021
Module time:
	user time   =      27.46 seconds =       0.46 minutes
	system time =       0.19 seconds =       0.00 minutes
	total time  =          8 seconds =       0.13 minutes
Total time:
	user time   =     238.13 seconds =       3.97 minutes
	system time =       1.97 seconds =       0.03 minutes
	total time  =         70 seconds =       1.17 minutes

			-----------------------------------------
			 OPTKING 2.0: for geometry optimizations 
			  - R.A. King,  Bethel University        
			-----------------------------------------

	Previous internal coordinate definitions found.
	---Fragment 1 Geometry and Gradient---
	 CR         -0.0017386915        0.1156958548       -0.0254641502
	 O           1.9148890451        1.5235390454       -1.7374447370
	 O          -1.9686844567        2.0565688393        0.9494716612
	 F          -1.4735120416       -2.1435609898       -1.7045240938
	 F           1.5235563283       -1.1868673978        2.4375426954
	             0.0002391553       -0.0159091571        0.0035017110
	            -0.0057153900       -0.0038868966        0.0050332437
	             0.0058560143       -0.0054749947       -0.0029726690
	             0.0084035973        0.0131865789        0.0095302719
	            -0.0087178214        0.0077213798       -0.0141322473

	---Fragment 1 Intrafragment Coordinates---
	 - Coordinate -           - BOHR/RAD -       - ANG/DEG -
	 R(1,2)           =         2.930249	       1.550621
	 R(1,3)           =         2.930250	       1.550621
	 R(1,4)           =         3.176413	       1.680885
	 R(1,5)           =         3.176413	       1.680885
	 B(2,1,3)         =         1.891477	     108.373645
	 B(2,1,4)         =         1.913420	     109.630885
	 B(2,1,5)         =         1.913420	     109.630881
	 B(3,1,4)         =         1.913420	     109.630915
	 B(3,1,5)         =         1.913421	     109.630924
	 B(4,1,5)         =         1.918465	     109.919970

	Current energy   :     -1394.7700215922

	Energy change for the previous step:
		Projected    :        -0.0016943138
		Actual       :        -0.0015285156
	Energy ratio indicates good step: Trust radius increased to 1.000e+00.


	Performing BFGS update.
	Previous computed or guess Hessian on step 1.
	Steps to be used in Hessian update: 1
	Taking RFO optimization step.
	Going to follow RFO solution 1.
	Using RFO vector 1.
	Norm of target step-size    0.04887
	Projected energy change by RFO approximation:        -0.0012111479

	Back-transformation to cartesian coordinates...
	Successfully converged to displaced geometry.

	--- Internal Coordinate Step in ANG or DEG, aJ/ANG or AJ/DEG ---
	 ---------------------------------------------------------------------------
	   Coordinate                Previous        Force       Change         New 
	   ----------                --------       ------       ------       ------
	    1 R(1,2)          =      1.550621     0.066104     0.003264     1.553885
	    2 R(1,3)          =      1.550621     0.066103     0.003264     1.553885
	    3 R(1,4)          =      1.680885     0.155083     0.015216     1.696101
	    4 R(1,5)          =      1.680885     0.155085     0.015216     1.696101
	    5 B(2,1,3)        =    108.373645     0.000222    -0.352505   108.021141
	    6 B(2,1,4)        =    109.630885     0.000004     0.390999   110.021884
	    7 B(2,1,5)        =    109.630881     0.000004     0.391030   110.021911
	    8 B(3,1,4)        =    109.630915     0.000004     0.390873   110.021789
	    9 B(3,1,5)        =    109.630924     0.000004     0.390876   110.021800
	   10 B(4,1,5)        =    109.919970    -0.000230    -1.192413   108.727556
	 ---------------------------------------------------------------------------
	Successfully symmetrized geometry.

  ==> Convergence Check <==

  Measures of convergence in internal coordinates in au.
  Criteria marked as inactive (o), active & met (*), and active & unmet ( ).
  ---------------------------------------------------------------------------------------------
   Step     Total Energy     Delta E     MAX Force     RMS Force      MAX Disp      RMS Disp   
  ---------------------------------------------------------------------------------------------
    Convergence Criteria             o    2.00e-06 *    1.00e-06 *    6.00e-06 *    4.00e-06 *
  ---------------------------------------------------------------------------------------------
      2   -1394.77002159   -1.53e-03 o    1.88e-02      9.25e-03      2.88e-02      1.54e-02    ~
  ---------------------------------------------------------------------------------------------

	Writing optimization data to binary file.
	Structure for next step:
	Cartesian Geometry (in Angstrom)
	   CR    -0.0010211071   0.0680012740  -0.0149672713
	    O     1.0130012486   0.8186640639  -0.9220626839
	    O    -1.0418415040   1.1006945546   0.4996159043
	    F    -0.7808081533  -1.1505496702  -0.9003060432
	    F     0.8077644301  -0.6434619135   1.2951643910
			--------------------------
			 OPTKING Finished Execution 
			--------------------------

    Structure for next step:
    Molecular point group: c1
    Full point group: C1

    Geometry (in Angstrom), charge = 0, multiplicity = 1:

    CR          -0.001002997708     0.066782165260    -0.014698834536
    O            1.013019362042     0.817444958092    -0.921794250699
    O           -1.041823398689     1.099475449892     0.499884343097
    F           -0.780790046959    -1.151768783706    -0.900037609900
    F            0.807782542653    -0.644681025081     1.295432832944

gradient() will perform analytic gradient computation.

*** tstart() called on thinkpad
*** at Sat Jul 10 15:24:16 2021

   => Loading Basis Set <=

    Name: DEF2-QZVP
    Role: ORBITAL
    Keyword: BASIS
    atoms 1   entry CR         line  1332 file /usr/share/psi4/basis/def2-qzvp.gbs 
    atoms 2-3 entry O          line   290 file /usr/share/psi4/basis/def2-qzvp.gbs 
    atoms 4-5 entry F          line   338 file /usr/share/psi4/basis/def2-qzvp.gbs 


         ---------------------------------------------------------
                                   SCF
               by Justin Turney, Rob Parrish, Andy Simmonett
                          and Daniel G. A. Smith
                              RKS Reference
                        4 Threads,   7629 MiB Core
         ---------------------------------------------------------

  ==> Geometry <==

    Molecular point group: c1
    Full point group: C1

    Geometry (in Angstrom), charge = 0, multiplicity = 1:

       Center              X                  Y                   Z               Mass       
    ------------   -----------------  -----------------  -----------------  -----------------
         CR          -0.001002997708     0.066782165260    -0.014698834536    51.940506230000
         O            1.013019362042     0.817444958092    -0.921794250699    15.994914619570
         O           -1.041823398689     1.099475449892     0.499884343097    15.994914619570
         F           -0.780790046959    -1.151768783706    -0.900037609900    18.998403162730
         F            0.807782542653    -0.644681025081     1.295432832944    18.998403162730

  Running in c1 symmetry.

  Rotational constants: A =      0.14816  B =      0.13731  C =      0.12449 [cm^-1]
  Rotational constants: A =   4441.82769  B =   4116.46683  C =   3732.21135 [MHz]
  Nuclear repulsion =  351.781644152167985

  Charge       = 0
  Multiplicity = 1
  Electrons    = 58
  Nalpha       = 29
  Nbeta        = 29

  ==> Algorithm <==

  SCF Algorithm Type is DF.
  DIIS enabled.
  MOM disabled.
  Fractional occupation disabled.
  Guess Type is READ.
  Energy threshold   = 1.00e-08
  Density threshold  = 1.00e-08
  Integral threshold = 0.00e+00

  ==> Primary Basis <==

  Basis Set: DEF2-QZVP
    Blend: DEF2-QZVP
    Number of shells: 94
    Number of basis function: 312
    Number of Cartesian functions: 392
    Spherical Harmonics?: true
    Max angular momentum: 4

  ==> DFT Potential <==

   => Composite Functional: MY R2SCAN <= 

    Re-regularized SCAN exchange by Furness et al
    Re-regularized SCAN correlation by Furness et al
    J. W. Furness, A. D. Kaplan, J. Ning, J. P. Perdew, and J. Sun, J. Phys. Chem. Lett. 11, 8208 (2020)
    J. W. Furness, A. D. Kaplan, J. Ning, J. P. Perdew, and J. Sun, J. Phys. Chem. Lett. 11, 9248 (2020)

    Deriv               =              1
    GGA                 =           TRUE
    Meta                =           TRUE

    Exchange Hybrid     =          FALSE
    MP2 Hybrid          =          FALSE

   => Exchange Functionals <=

    1.0000   XC_mgga_x_r2scan

   => Correlation Functionals <=

    1.0000   XC_mgga_c_r2scan

   => Molecular Quadrature <=

    Radial Scheme          =       TREUTLER
    Pruning Scheme         =           FLAT
    Nuclear Scheme         =       TREUTLER

    BS radius alpha        =              1
    Pruning alpha          =              1
    Radial Points          =             75
    Spherical Points       =            302
    Total Points           =         113250
    Total Blocks           =            921
    Max Points             =            256
    Max Functions          =            293

   => Loading Basis Set <=

    Name: (DEF2-QZVP AUX)
    Role: JKFIT
    Keyword: DF_BASIS_SCF
    atoms 1   entry CR         line  1731 file /usr/share/psi4/basis/def2-qzvp-jkfit.gbs 
    atoms 2-3 entry O          line   323 file /usr/share/psi4/basis/def2-qzvp-jkfit.gbs 
    atoms 4-5 entry F          line   383 file /usr/share/psi4/basis/def2-qzvp-jkfit.gbs 

   => Loading Basis Set <=

    Name: DEF2-QZVP
    Role: ORBITAL
    Keyword: BASIS
    atoms 1   entry CR         line  1332 file /usr/share/psi4/basis/def2-qzvp.gbs 
    atoms 2-3 entry O          line   290 file /usr/share/psi4/basis/def2-qzvp.gbs 
    atoms 4-5 entry F          line   338 file /usr/share/psi4/basis/def2-qzvp.gbs 

  Reading orbitals from file 180, no projection.

  ==> Pre-Iterations <==

   -------------------------------------------------------
    Irrep   Nso     Nmo     Nalpha   Nbeta   Ndocc  Nsocc
   -------------------------------------------------------
     A        312     312       0       0       0       0
   -------------------------------------------------------
    Total     312     312      29      29      29       0
   -------------------------------------------------------

  ==> Integral Setup <==

  DFHelper Memory: AOs need 0.423 GiB; user supplied 3.979 GiB. Using in-core AOs.

  ==> MemDFJK: Density-Fitted J/K Matrices <==

    J tasked:                   Yes
    K tasked:                    No
    wK tasked:                   No
    OpenMP threads:               4
    Memory [MiB]:              4074
    Algorithm:                 Core
    Schwarz Cutoff:           1E-12
    Mask sparsity (%):       6.1678
    Fitting Condition:        1E-10

   => Auxiliary Basis Set <=

  Basis Set: (DEF2-QZVP AUX)
    Blend: DEF2-QZVP-JKFIT
    Number of shells: 158
    Number of basis function: 572
    Number of Cartesian functions: 749
    Spherical Harmonics?: true
    Max angular momentum: 6

  Cached 100.0% of DFT collocation blocks in 1.609 [GiB].

  Minimum eigenvalue in the overlap matrix is 3.5464018226E-04.
  Using Symmetric Orthogonalization.

  SCF Guess: Orbitals guess was supplied from a previous computation.

  ==> Iterations <==

                           Total Energy        Delta E     RMS |[F,P]|

   @DF-RKS iter   0: -1394.75262929519477   -1.39475e+03   2.51059e-04 
   @DF-RKS iter   1: -1394.76974892389012   -1.71196e-02   1.98933e-04 DIIS
   @DF-RKS iter   2: -1394.70155030393380    6.81986e-02   1.59865e-03 DIIS
   @DF-RKS iter   3: -1394.77076703390276   -6.92167e-02   4.19558e-05 DIIS
   @DF-RKS iter   4: -1394.77080519219203   -3.81583e-05   2.56239e-05 DIIS
   @DF-RKS iter   5: -1394.77082295996593   -1.77678e-05   1.24190e-05 DIIS
   @DF-RKS iter   6: -1394.77082638085926   -3.42089e-06   4.03266e-06 DIIS
   @DF-RKS iter   7: -1394.77082680291892   -4.22060e-07   8.37475e-07 DIIS
   @DF-RKS iter   8: -1394.77082681463776   -1.17188e-08   5.54128e-07 DIIS
   @DF-RKS iter   9: -1394.77082682432660   -9.68885e-09   3.30427e-08 DIIS
   @DF-RKS iter  10: -1394.77082682434889   -2.22826e-11   1.56215e-08 DIIS
   @DF-RKS iter  11: -1394.77082682435275   -3.86535e-12   1.12055e-08 DIIS
   @DF-RKS iter  12: -1394.77082682435753   -4.77485e-12   6.71074e-10 DIIS
  Energy and wave function converged.


  ==> Post-Iterations <==

    Orbital Energies [Eh]
    ---------------------

    Doubly Occupied:                                                      

       1A   -215.493597     2A    -24.793016     3A    -24.530055  
       4A    -24.530054     5A    -21.065109     6A    -21.064569  
       7A    -21.061563     8A    -19.047016     9A    -19.047015  
      10A     -3.023553    11A     -1.974279    12A     -1.974040  
      13A     -1.968249    14A     -1.165841    15A     -1.161065  
      16A     -0.954307    17A     -0.944001    18A     -0.495655  
      19A     -0.487808    20A     -0.471512    21A     -0.470173  
      22A     -0.468675    23A     -0.434131    24A     -0.425673  
      25A     -0.411680    26A     -0.390881    27A     -0.378830  
      28A     -0.377292    29A     -0.335528  

    Virtual:                                                              

      30A     -0.217085    31A     -0.202535    32A     -0.171656  
      33A     -0.139579    34A     -0.111577    35A      0.002126  
      36A      0.038331    37A      0.038530    38A      0.039271  
      39A      0.124460    40A      0.138683    41A      0.138887  
      42A      0.140026    43A      0.142325    44A      0.142545  
      45A      0.172930    46A      0.182873    47A      0.183414  
      48A      0.343258    49A      0.354847    50A      0.373838  
      51A      0.378389    52A      0.393352    53A      0.400820  
      54A      0.407029    55A      0.415243    56A      0.417074  
      57A      0.427476    58A      0.442148    59A      0.485201  
      60A      0.497517    61A      0.508485    62A      0.512107  
      63A      0.516996    64A      0.520848    65A      0.534958  
      66A      0.543122    67A      0.568669    68A      0.579179  
      69A      0.908856    70A      0.911581    71A      0.972531  
      72A      0.977393    73A      0.998373    74A      1.024737  
      75A      1.026265    76A      1.117518    77A      1.130849  
      78A      1.136027    79A      1.140449    80A      1.140627  
      81A      1.202253    82A      1.243250    83A      1.277838  
      84A      1.283822    85A      1.351809    86A      1.367088  
      87A      1.370483    88A      1.374133    89A      1.394788  
      90A      1.400351    91A      1.405902    92A      1.409607  
      93A      1.429427    94A      1.483271    95A      1.507733  
      96A      1.524261    97A      1.543935    98A      1.549476  
      99A      1.617326   100A      1.617800   101A      1.653647  
     102A      1.685149   103A      1.702752   104A      1.750967  
     105A      1.751643   106A      1.785010   107A      1.788608  
     108A      1.811264   109A      1.907310   110A      1.940602  
     111A      1.976062   112A      2.146995   113A      2.217074  
     114A      2.220586   115A      2.239472   116A      2.333525  
     117A      2.562761   118A      2.610683   119A      2.832835  
     120A      2.929399   121A      2.985622   122A      2.999871  
     123A      3.032818   124A      3.105023   125A      3.136242  
     126A      3.178912   127A      3.212840   128A      3.232589  
     129A      3.251928   130A      3.287409   131A      3.307192  
     132A      3.385252   133A      3.427597   134A      3.438372  
     135A      3.630288   136A      3.655169   137A      3.741081  
     138A      3.758778   139A      3.813257   140A      3.836137  
     141A      3.857226   142A      3.891402   143A      3.918420  
     144A      3.926707   145A      4.017000   146A      4.041449  
     147A      4.098942   148A      4.145108   149A      4.149280  
     150A      4.151909   151A      4.182375   152A      4.217837  
     153A      4.229210   154A      4.234024   155A      4.270905  
     156A      4.287342   157A      4.340965   158A      4.345103  
     159A      4.397790   160A      4.403080   161A      4.435545  
     162A      4.438809   163A      4.496455   164A      4.512307  
     165A      4.516226   166A      4.748572   167A      4.806972  
     168A      4.830334   169A      4.876092   170A      4.915202  
     171A      5.010334   172A      5.022330   173A      5.069973  
     174A      5.078709   175A      5.115216   176A      5.133330  
     177A      5.150132   178A      5.168618   179A      5.173499  
     180A      5.180139   181A      5.253186   182A      5.357483  
     183A      5.402283   184A      5.421597   185A      5.495518  
     186A      5.497784   187A      5.587508   188A      5.784081  
     189A      5.801458   190A      5.920994   191A      6.032128  
     192A      6.043478   193A      6.184837   194A      6.242106  
     195A      6.243725   196A      6.360672   197A      6.410237  
     198A      6.459079   199A      6.466409   200A      6.504864  
     201A      6.566687   202A      6.702877   203A      6.888459  
     204A      7.191624   205A      7.207008   206A      9.006825  
     207A      9.008534   208A      9.019944   209A      9.021554  
     210A      9.021761   211A      9.022293   212A      9.023012  
     213A      9.035405   214A      9.047885   215A      9.090536  
     216A      9.106003   217A      9.118263   218A      9.261880  
     219A      9.269738   220A      9.284217   221A      9.331025  
     222A      9.366476   223A      9.463773   224A      9.512242  
     225A     10.950767   226A     10.995409   227A     11.028305  
     228A     11.041291   229A     11.063848   230A     11.088879  
     231A     11.107233   232A     11.131399   233A     11.146135  
     234A     11.185762   235A     11.254403   236A     11.262472  
     237A     11.268720   238A     11.334294   239A     11.363226  
     240A     11.584804   241A     11.595746   242A     11.600081  
     243A     11.601105   244A     11.609255   245A     11.611517  
     246A     11.611610   247A     11.611907   248A     11.612523  
     249A     11.612674   250A     11.619336   251A     11.620381  
     252A     11.639390   253A     11.652710   254A     11.655435  
     255A     11.695949   256A     11.755951   257A     11.820070  
     258A     11.826616   259A     11.915153   260A     11.940662  
     261A     11.976284   262A     12.083549   263A     12.086524  
     264A     12.100487   265A     12.133213   266A     12.151252  
     267A     12.201830   268A     12.371027   269A     12.383247  
     270A     12.407640   271A     12.467834   272A     12.730508  
     273A     12.916892   274A     13.825375   275A     13.976306  
     276A     14.742741   277A     14.748151   278A     14.759415  
     279A     14.759482   280A     14.823310   281A     14.828623  
     282A     14.829700   283A     14.881475   284A     15.003113  
     285A     15.009047   286A     15.016916   287A     15.041184  
     288A     15.051103   289A     15.118287   290A     15.674275  
     291A     15.684704   292A     15.948188   293A     15.970416  
     294A     15.991056   295A     16.043032   296A     16.213035  
     297A     16.274716   298A     16.299456   299A     16.337803  
     300A     16.739623   301A     16.743177   302A     29.764383  
     303A     47.664027   304A     47.858919   305A     54.427479  
     306A     54.510580   307A     98.756546   308A    253.309086  
     309A    253.528194   310A    285.888351   311A    285.989896  
     312A    623.990074  

    Final Occupation by Irrep:
              A 
    DOCC [    29 ]

  @DF-RKS Final Energy: -1394.77082682435753

   => Energetics <=

    Nuclear Repulsion Energy =            351.7816441521679849
    One-Electron Energy =               -2620.4245520709837365
    Two-Electron Energy =                 960.2561990176384370
    DFT Exchange-Correlation Energy =     -86.3841179231803267
    Empirical Dispersion Energy =           0.0000000000000000
    VV10 Nonlocal Energy =                  0.0000000000000000
    Total Energy =                      -1394.7708268243575276

Computation Completed


Properties will be evaluated at   0.000000,   0.000000,   0.000000 [a0]

Properties computed using the SCF density matrix

  Nuclear Dipole Moment: [e a0]
     X:    -0.0219      Y:     1.4553      Z:    -0.3203

  Electronic Dipole Moment: [e a0]
     X:     0.0230      Y:    -1.5288      Z:     0.3365

  Dipole Moment: [e a0]
     X:     0.0011      Y:    -0.0735      Z:     0.0162     Total:     0.0753

  Dipole Moment: [D]
     X:     0.0028      Y:    -0.1868      Z:     0.0411     Total:     0.1913


*** tstop() called on thinkpad at Sat Jul 10 15:24:39 2021
Module time:
	user time   =      81.77 seconds =       1.36 minutes
	system time =       0.34 seconds =       0.01 minutes
	total time  =         23 seconds =       0.38 minutes
Total time:
	user time   =     319.97 seconds =       5.33 minutes
	system time =       2.31 seconds =       0.04 minutes
	total time  =         93 seconds =       1.55 minutes

*** tstart() called on thinkpad
*** at Sat Jul 10 15:24:39 2021


         ------------------------------------------------------------
                                   SCF GRAD                          
                          Rob Parrish, Justin Turney,                
                       Andy Simmonett, and Alex Sokolov              
         ------------------------------------------------------------

  ==> Geometry <==

    Molecular point group: c1
    Full point group: C1

    Geometry (in Angstrom), charge = 0, multiplicity = 1:

       Center              X                  Y                   Z               Mass       
    ------------   -----------------  -----------------  -----------------  -----------------
         CR          -0.001002997708     0.066782165260    -0.014698834536    51.940506230000
         O            1.013019362042     0.817444958092    -0.921794250699    15.994914619570
         O           -1.041823398689     1.099475449892     0.499884343097    15.994914619570
         F           -0.780790046959    -1.151768783706    -0.900037609900    18.998403162730
         F            0.807782542653    -0.644681025081     1.295432832944    18.998403162730

  Nuclear repulsion =  351.781644152167985

  ==> Basis Set <==

  Basis Set: DEF2-QZVP
    Blend: DEF2-QZVP
    Number of shells: 94
    Number of basis function: 312
    Number of Cartesian functions: 392
    Spherical Harmonics?: true
    Max angular momentum: 4

  ==> DFJKGrad: Density-Fitted SCF Gradients <==

    Gradient:                    1
    J tasked:                  Yes
    K tasked:                   No
    wK tasked:                  No
    OpenMP threads:              4
    Integrals threads:           4
    Memory [MiB]:             5722
    Schwarz Cutoff:          0E+00
    Fitting Condition:       1E-10

   => Auxiliary Basis Set <=

  Basis Set: (DEF2-QZVP AUX)
    Blend: DEF2-QZVP-JKFIT
    Number of shells: 158
    Number of basis function: 572
    Number of Cartesian functions: 749
    Spherical Harmonics?: true
    Max angular momentum: 6

  ==> DFT Potential <==

   => Composite Functional: MY R2SCAN <= 

    Re-regularized SCAN exchange by Furness et al
    Re-regularized SCAN correlation by Furness et al
    J. W. Furness, A. D. Kaplan, J. Ning, J. P. Perdew, and J. Sun, J. Phys. Chem. Lett. 11, 8208 (2020)
    J. W. Furness, A. D. Kaplan, J. Ning, J. P. Perdew, and J. Sun, J. Phys. Chem. Lett. 11, 9248 (2020)

    Deriv               =              1
    GGA                 =           TRUE
    Meta                =           TRUE

    Exchange Hybrid     =          FALSE
    MP2 Hybrid          =          FALSE

   => Exchange Functionals <=

    1.0000   XC_mgga_x_r2scan

   => Correlation Functionals <=

    1.0000   XC_mgga_c_r2scan

   => Molecular Quadrature <=

    Radial Scheme          =       TREUTLER
    Pruning Scheme         =           FLAT
    Nuclear Scheme         =       TREUTLER

    BS radius alpha        =              1
    Pruning alpha          =              1
    Radial Points          =             75
    Spherical Points       =            302
    Total Points           =         113250
    Total Blocks           =            921
    Max Points             =            256
    Max Functions          =            293


  -Total Gradient:
     Atom            X                  Y                   Z
    ------   -----------------  -----------------  -----------------
       1        0.000133166533    -0.008838000131     0.001945050707
       2       -0.002948938077    -0.000823132195     0.002323842204
       3        0.002985718701    -0.001637683631    -0.001782133033
       4        0.003746724102     0.004708527122     0.004481448245
       5       -0.003851935143     0.002282963487    -0.006020180965


*** tstop() called on thinkpad at Sat Jul 10 15:24:48 2021
Module time:
	user time   =      28.45 seconds =       0.47 minutes
	system time =       0.20 seconds =       0.00 minutes
	total time  =          9 seconds =       0.15 minutes
Total time:
	user time   =     348.43 seconds =       5.81 minutes
	system time =       2.51 seconds =       0.04 minutes
	total time  =        102 seconds =       1.70 minutes

			-----------------------------------------
			 OPTKING 2.0: for geometry optimizations 
			  - R.A. King,  Bethel University        
			-----------------------------------------

	Previous internal coordinate definitions found.
	---Fragment 1 Geometry and Gradient---
	 CR         -0.0018953910        0.1262000024       -0.0277767716
	 O           1.9143291540        1.5447470934       -1.7419386778
	 O          -1.9687608946        2.0777074820        0.9446445029
	 F          -1.4754793502       -2.1765275611       -1.7008245853
	 F           1.5264877745       -1.2182705757        2.4480132682
	             0.0001331665       -0.0088380001        0.0019450507
	            -0.0029489381       -0.0008231322        0.0023238422
	             0.0029857187       -0.0016376836       -0.0017821330
	             0.0037467241        0.0047085271        0.0044814482
	            -0.0038519351        0.0022829635       -0.0060201810

	---Fragment 1 Intrafragment Coordinates---
	 - Coordinate -           - BOHR/RAD -       - ANG/DEG -
	 R(1,2)           =         2.936417	       1.553885
	 R(1,3)           =         2.936417	       1.553885
	 R(1,4)           =         3.205167	       1.696101
	 R(1,5)           =         3.205167	       1.696101
	 B(2,1,3)         =         1.885325	     108.021141
	 B(2,1,4)         =         1.920244	     110.021884
	 B(2,1,5)         =         1.920245	     110.021911
	 B(3,1,4)         =         1.920242	     110.021789
	 B(3,1,5)         =         1.920243	     110.021800
	 B(4,1,5)         =         1.897654	     108.727556

	Current energy   :     -1394.7708268244

	Energy change for the previous step:
		Projected    :        -0.0012111479
		Actual       :        -0.0008052321

	Performing BFGS update.
	Previous computed or guess Hessian on step 1.
	Steps to be used in Hessian update: 2 1
	Taking RFO optimization step.
	Going to follow RFO solution 1.
	Using RFO vector 1.
	Norm of target step-size    0.02791
	Projected energy change by RFO approximation:        -0.0003392612

	Back-transformation to cartesian coordinates...
	Successfully converged to displaced geometry.

	--- Internal Coordinate Step in ANG or DEG, aJ/ANG or AJ/DEG ---
	 ---------------------------------------------------------------------------
	   Coordinate                Previous        Force       Change         New 
	   ----------                --------       ------       ------       ------
	    1 R(1,2)          =      1.553885     0.026036     0.001896     1.555781
	    2 R(1,3)          =      1.553885     0.026035     0.001896     1.555781
	    3 R(1,4)          =      1.696101     0.065569     0.009092     1.705193
	    4 R(1,5)          =      1.696101     0.065569     0.009092     1.705193
	    5 B(2,1,3)        =    108.021141     0.000332     0.619101   108.640241
	    6 B(2,1,4)        =    110.021884    -0.000077    -0.062148   109.959736
	    7 B(2,1,5)        =    110.021911    -0.000077    -0.062163   109.959748
	    8 B(3,1,4)        =    110.021789    -0.000077    -0.062100   109.959688
	    9 B(3,1,5)        =    110.021800    -0.000077    -0.062113   109.959687
	   10 B(4,1,5)        =    108.727556    -0.000025    -0.370991   108.356565
	 ---------------------------------------------------------------------------
	Successfully symmetrized geometry.

  ==> Convergence Check <==

  Measures of convergence in internal coordinates in au.
  Criteria marked as inactive (o), active & met (*), and active & unmet ( ).
  ---------------------------------------------------------------------------------------------
   Step     Total Energy     Delta E     MAX Force     RMS Force      MAX Disp      RMS Disp   
  ---------------------------------------------------------------------------------------------
    Convergence Criteria             o    2.00e-06 *    1.00e-06 *    6.00e-06 *    4.00e-06 *
  ---------------------------------------------------------------------------------------------
      3   -1394.77082682   -8.05e-04 o    7.96e-03      4.12e-03      1.72e-02      8.83e-03    ~
  ---------------------------------------------------------------------------------------------

	Writing optimization data to binary file.
	Structure for next step:
	Cartesian Geometry (in Angstrom)
	   CR    -0.0010941816   0.0728285482  -0.0160295063
	    O     1.0182867498   0.8172006071  -0.9255490229
	    O    -1.0471052830   1.1006795485   0.5034281105
	    F    -0.7831375816  -1.1560381318  -0.9025841531
	    F     0.8102357578  -0.6474178083   1.2995210529
			--------------------------
			 OPTKING Finished Execution 
			--------------------------

    Structure for next step:
    Molecular point group: c1
    Full point group: C1

    Geometry (in Angstrom), charge = 0, multiplicity = 1:

    CR          -0.001069902795     0.071218587304    -0.015675185181
    O            1.018311032612     0.815590649166    -0.925194705352
    O           -1.047081008248     1.099069591684     0.503782433710
    F           -0.783113305808    -1.157648097541    -0.902229835387
    F            0.810260039788    -0.649027772079     1.299875379248

gradient() will perform analytic gradient computation.

*** tstart() called on thinkpad
*** at Sat Jul 10 15:24:48 2021

   => Loading Basis Set <=

    Name: DEF2-QZVP
    Role: ORBITAL
    Keyword: BASIS
    atoms 1   entry CR         line  1332 file /usr/share/psi4/basis/def2-qzvp.gbs 
    atoms 2-3 entry O          line   290 file /usr/share/psi4/basis/def2-qzvp.gbs 
    atoms 4-5 entry F          line   338 file /usr/share/psi4/basis/def2-qzvp.gbs 


         ---------------------------------------------------------
                                   SCF
               by Justin Turney, Rob Parrish, Andy Simmonett
                          and Daniel G. A. Smith
                              RKS Reference
                        4 Threads,   7629 MiB Core
         ---------------------------------------------------------

  ==> Geometry <==

    Molecular point group: c1
    Full point group: C1

    Geometry (in Angstrom), charge = 0, multiplicity = 1:

       Center              X                  Y                   Z               Mass       
    ------------   -----------------  -----------------  -----------------  -----------------
         CR          -0.001069902795     0.071218587304    -0.015675185181    51.940506230000
         O            1.018311032612     0.815590649166    -0.925194705352    15.994914619570
         O           -1.047081008248     1.099069591684     0.503782433710    15.994914619570
         F           -0.783113305808    -1.157648097541    -0.902229835387    18.998403162730
         F            0.810260039788    -0.649027772079     1.299875379248    18.998403162730

  Running in c1 symmetry.

  Rotational constants: A =      0.14707  B =      0.13625  C =      0.12379 [cm^-1]
  Rotational constants: A =   4408.95501  B =   4084.60685  C =   3711.24995 [MHz]
  Nuclear repulsion =  350.614233218102072

  Charge       = 0
  Multiplicity = 1
  Electrons    = 58
  Nalpha       = 29
  Nbeta        = 29

  ==> Algorithm <==

  SCF Algorithm Type is DF.
  DIIS enabled.
  MOM disabled.
  Fractional occupation disabled.
  Guess Type is READ.
  Energy threshold   = 1.00e-08
  Density threshold  = 1.00e-08
  Integral threshold = 0.00e+00

  ==> Primary Basis <==

  Basis Set: DEF2-QZVP
    Blend: DEF2-QZVP
[...]
      72A      0.978804    73A      0.992921    74A      1.022611  
      75A      1.027044    76A      1.115628    77A      1.126957  
      78A      1.136052    79A      1.137919    80A      1.140608  
      81A      1.200547    82A      1.235104    83A      1.274839  
      84A      1.283567    85A      1.351410    86A      1.367702  
      87A      1.368833    88A      1.375576    89A      1.395591  
      90A      1.399578    91A      1.400698    92A      1.407315  
      93A      1.429236    94A      1.478092    95A      1.508161  
      96A      1.516431    97A      1.540550    98A      1.545499  
      99A      1.607675   100A      1.615788   101A      1.650179  
     102A      1.684407   103A      1.701497   104A      1.747589  
     105A      1.752144   106A      1.784491   107A      1.789538  
     108A      1.811772   109A      1.904354   110A      1.934828  
     111A      1.969967   112A      2.136146   113A      2.205373  
     114A      2.215205   115A      2.219501   116A      2.322207  
     117A      2.564623   118A      2.609657   119A      2.819497  
     120A      2.929552   121A      2.988074   122A      2.992342  
     123A      3.030546   124A      3.102954   125A      3.131940  
     126A      3.175388   127A      3.212538   128A      3.228389  
     129A      3.251474   130A      3.288477   131A      3.310085  
     132A      3.384381   133A      3.426029   134A      3.431890  
     135A      3.629584   136A      3.653261   137A      3.739507  
     138A      3.750034   139A      3.817183   140A      3.831100  
     141A      3.862418   142A      3.890846   143A      3.916116  
     144A      3.925397   145A      4.012699   146A      4.038820  
     147A      4.090863   148A      4.147242   149A      4.147334  
     150A      4.148920   151A      4.178853   152A      4.217226  
     153A      4.226726   154A      4.228587   155A      4.266279  
     156A      4.281996   157A      4.336555   158A      4.343018  
     159A      4.396395   160A      4.396564   161A      4.429571  
     162A      4.431839   163A      4.487525   164A      4.505913  
     165A      4.508608   166A      4.737893   167A      4.810988  
     168A      4.824774   169A      4.855209   170A      4.895210  
     171A      5.004322   172A      5.020890   173A      5.060204  
     174A      5.076494   175A      5.112635   176A      5.127670  
     177A      5.146803   178A      5.156084   179A      5.171721  
     180A      5.178415   181A      5.250617   182A      5.363160  
     183A      5.412905   184A      5.417674   185A      5.483827  
     186A      5.493776   187A      5.578222   188A      5.775337  
     189A      5.787377   190A      5.910209   191A      6.024573  
     192A      6.030797   193A      6.173045   194A      6.231607  
     195A      6.236426   196A      6.354582   197A      6.401762  
     198A      6.453982   199A      6.461658   200A      6.493674  
     201A      6.532250   202A      6.668177   203A      6.884960  
     204A      7.180579   205A      7.193679   206A      9.005162  
     207A      9.007027   208A      9.018089   209A      9.020197  
     210A      9.020435   211A      9.020934   212A      9.021636  
     213A      9.033220   214A      9.045894   215A      9.086196  
     216A      9.104613   217A      9.112420   218A      9.251902  
     219A      9.265255   220A      9.272932   221A      9.330189  
     222A      9.359880   223A      9.459867   224A      9.506627  
     225A     10.953402   226A     10.994982   227A     11.026576  
     228A     11.040874   229A     11.061170   230A     11.089760  
     231A     11.104353   232A     11.132199   233A     11.145586  
     234A     11.185760   235A     11.248636   236A     11.261118  
     237A     11.266932   238A     11.331315   239A     11.355792  
     240A     11.587127   241A     11.598427   242A     11.602349  
     243A     11.603816   244A     11.611402   245A     11.613795  
     246A     11.613862   247A     11.614145   248A     11.614796  
     249A     11.614998   250A     11.621604   251A     11.622349  
     252A     11.637513   253A     11.650147   254A     11.653172  
     255A     11.686790   256A     11.752817   257A     11.799670  
     258A     11.827707   259A     11.896445   260A     11.931568  
     261A     11.960256   262A     12.075302   263A     12.082280  
     264A     12.087281   265A     12.130603   266A     12.143945  
     267A     12.198844   268A     12.367900   269A     12.372427  
     270A     12.405066   271A     12.472679   272A     12.723475  
     273A     12.900045   274A     13.818741   275A     13.968698  
     276A     14.744509   277A     14.749691   278A     14.760285  
     279A     14.760523   280A     14.821983   281A     14.825634  
     282A     14.829032   283A     14.877571   284A     14.994965  
     285A     14.999930   286A     15.006809   287A     15.033324  
     288A     15.047219   289A     15.109090   290A     15.643916  
     291A     15.644231   292A     15.947567   293A     15.969085  
     294A     15.989972   295A     16.039545   296A     16.208621  
     297A     16.268544   298A     16.295270   299A     16.325790  
     300A     16.725383   301A     16.725555   302A     29.750145  
     303A     47.657631   304A     47.853266   305A     54.413022  
     306A     54.494122   307A     98.742777   308A    253.301705  
     309A    253.521682   310A    285.870917   311A    285.969764  
     312A    623.966337  

    Final Occupation by Irrep:
              A 
    DOCC [    29 ]

  @DF-RKS Final Energy: -1394.77103564758340

   => Energetics <=

    Nuclear Repulsion Energy =            350.2769569755561747
    One-Electron Energy =               -2617.4063463126876741
    Two-Electron Energy =                 958.7286804835316616
    DFT Exchange-Correlation Energy =     -86.3703267939834660
    Empirical Dispersion Energy =           0.0000000000000000
    VV10 Nonlocal Energy =                  0.0000000000000000
    Total Energy =                      -1394.7710356475834033

Computation Completed


Properties will be evaluated at   0.000000,   0.000000,   0.000000 [a0]

Properties computed using the SCF density matrix

  Nuclear Dipole Moment: [e a0]
     X:    -0.0217      Y:     1.4459      Z:    -0.3182

  Electronic Dipole Moment: [e a0]
     X:     0.0224      Y:    -1.4903      Z:     0.3280

  Dipole Moment: [e a0]
     X:     0.0007      Y:    -0.0444      Z:     0.0098     Total:     0.0455

  Dipole Moment: [D]
     X:     0.0017      Y:    -0.1129      Z:     0.0249     Total:     0.1156


*** tstop() called on thinkpad at Sat Jul 10 15:29:44 2021
Module time:
	user time   =      36.55 seconds =       0.61 minutes
	system time =       0.28 seconds =       0.00 minutes
	total time  =         12 seconds =       0.20 minutes
Total time:
	user time   =    1338.28 seconds =      22.30 minutes
	system time =       8.57 seconds =       0.14 minutes
	total time  =        398 seconds =       6.63 minutes

*** tstart() called on thinkpad
*** at Sat Jul 10 15:29:44 2021


         ------------------------------------------------------------
                                   SCF GRAD                          
                          Rob Parrish, Justin Turney,                
                       Andy Simmonett, and Alex Sokolov              
         ------------------------------------------------------------

  ==> Geometry <==

    Molecular point group: c1
    Full point group: C1

    Geometry (in Angstrom), charge = 0, multiplicity = 1:

       Center              X                  Y                   Z               Mass       
    ------------   -----------------  -----------------  -----------------  -----------------
         CR          -0.001049199014     0.069823591045    -0.015367998521    51.940506230000
         O            1.019303433903     0.812913893810    -0.925294411066    15.994914619570
         O           -1.047996897344     1.096655380571     0.505002733580    15.994914619570
         F           -0.787522530551    -1.154986270560    -0.909131479846    18.998403162730
         F            0.814548245365    -0.643589634839     1.304993756018    18.998403162730

  Nuclear repulsion =  350.276956975556175

  ==> Basis Set <==

  Basis Set: DEF2-QZVP
    Blend: DEF2-QZVP
    Number of shells: 94
    Number of basis function: 312
    Number of Cartesian functions: 392
    Spherical Harmonics?: true
    Max angular momentum: 4

  ==> DFJKGrad: Density-Fitted SCF Gradients <==

    Gradient:                    1
    J tasked:                  Yes
    K tasked:                   No
    wK tasked:                  No
    OpenMP threads:              4
    Integrals threads:           4
    Memory [MiB]:             5722
    Schwarz Cutoff:          0E+00
    Fitting Condition:       1E-10

   => Auxiliary Basis Set <=

  Basis Set: (DEF2-QZVP AUX)
    Blend: DEF2-QZVP-JKFIT
    Number of shells: 158
    Number of basis function: 572
    Number of Cartesian functions: 749
    Spherical Harmonics?: true
    Max angular momentum: 6

  ==> DFT Potential <==

   => Composite Functional: MY R2SCAN <= 

    Re-regularized SCAN exchange by Furness et al
    Re-regularized SCAN correlation by Furness et al
    J. W. Furness, A. D. Kaplan, J. Ning, J. P. Perdew, and J. Sun, J. Phys. Chem. Lett. 11, 8208 (2020)
    J. W. Furness, A. D. Kaplan, J. Ning, J. P. Perdew, and J. Sun, J. Phys. Chem. Lett. 11, 9248 (2020)

    Deriv               =              1
    GGA                 =           TRUE
    Meta                =           TRUE

    Exchange Hybrid     =          FALSE
    MP2 Hybrid          =          FALSE

   => Exchange Functionals <=

    1.0000   XC_mgga_x_r2scan

   => Correlation Functionals <=

    1.0000   XC_mgga_c_r2scan

   => Molecular Quadrature <=

    Radial Scheme          =       TREUTLER
    Pruning Scheme         =           FLAT
    Nuclear Scheme         =       TREUTLER

    BS radius alpha        =              1
    Pruning alpha          =              1
    Radial Points          =             75
    Spherical Points       =            302
    Total Points           =         113250
    Total Blocks           =            921
    Max Points             =            256
    Max Functions          =            294


  -Total Gradient:
     Atom            X                  Y                   Z
    ------   -----------------  -----------------  -----------------
       1        0.000012653355    -0.000847929237     0.000186672826
       2        0.000013454448    -0.000844526711     0.000185324943
       3        0.000012007477    -0.000844402331     0.000186342769
       4        0.000013029401    -0.000844567063     0.000186383837
       5        0.000012357526    -0.000844791816     0.000185457259


*** tstop() called on thinkpad at Sat Jul 10 15:29:52 2021
Module time:
	user time   =      27.54 seconds =       0.46 minutes
	system time =       0.18 seconds =       0.00 minutes
	total time  =          8 seconds =       0.13 minutes
Total time:
	user time   =    1365.83 seconds =      22.76 minutes
	system time =       8.75 seconds =       0.15 minutes
	total time  =        406 seconds =       6.77 minutes

			-----------------------------------------
			 OPTKING 2.0: for geometry optimizations 
			  - R.A. King,  Bethel University        
			-----------------------------------------

	Previous internal coordinate definitions found.
	---Fragment 1 Geometry and Gradient---
	 CR         -0.0019826988        0.1319474642       -0.0290413083
	 O           1.9262043288        1.5361846229       -1.7485530223
	 O          -1.9804271163        2.0723783233        0.9543168591
	 F          -1.4882019004       -2.1826077300       -1.7180095089
	 F           1.5392730997       -1.2162081470        2.4660807943
	             0.0000126534       -0.0008479292        0.0001866728
	             0.0000134544       -0.0008445267        0.0001853249
	             0.0000120075       -0.0008444023        0.0001863428
	             0.0000130294       -0.0008445671        0.0001863838
	             0.0000123575       -0.0008447918        0.0001854573

	---Fragment 1 Intrafragment Coordinates---
	 - Coordinate -           - BOHR/RAD -       - ANG/DEG -
	 R(1,2)           =         2.940494	       1.556043
	 R(1,3)           =         2.940494	       1.556043
	 R(1,4)           =         3.227790	       1.708073
	 R(1,5)           =         3.227790	       1.708073
	 B(2,1,3)         =         1.898235	     108.760867
	 B(2,1,4)         =         1.915994	     109.778379
	 B(2,1,5)         =         1.915994	     109.778379
	 B(3,1,4)         =         1.915994	     109.778382
	 B(3,1,5)         =         1.915994	     109.778382
	 B(4,1,5)         =         1.901645	     108.956222

	Current energy   :     -1394.7710356476

	Energy change for the previous step:
		Projected    :        -0.0000000000
		Actual       :         0.0000000094

	Performing BFGS update.
	Previous computed or guess Hessian on step 1.
	Denominators (dg)(dq) or (dq)(dq) are very small.
	 Skipping Hessian update for step 15.
	Denominators (dg)(dq) or (dq)(dq) are very small.
	 Skipping Hessian update for step 14.
	Denominators (dg)(dq) or (dq)(dq) are very small.
	 Skipping Hessian update for step 13.
	Denominators (dg)(dq) or (dq)(dq) are very small.
	 Skipping Hessian update for step 12.
	Denominators (dg)(dq) or (dq)(dq) are very small.
	 Skipping Hessian update for step 11.
	Denominators (dg)(dq) or (dq)(dq) are very small.
	 Skipping Hessian update for step 10.
	Denominators (dg)(dq) or (dq)(dq) are very small.
	 Skipping Hessian update for step 9.
	Denominators (dg)(dq) or (dq)(dq) are very small.
	 Skipping Hessian update for step 8.
	Denominators (dg)(dq) or (dq)(dq) are very small.
	 Skipping Hessian update for step 7.
	Steps to be used in Hessian update: 6 5
	Taking RFO optimization step.
	Going to follow RFO solution 1.
	Using RFO vector 1.
	Norm of target step-size    0.00000
	Projected energy change by RFO approximation:        -0.0000000000

	Back-transformation to cartesian coordinates...
	Successfully converged to displaced geometry.

	--- Internal Coordinate Step in ANG or DEG, aJ/ANG or AJ/DEG ---
	 ---------------------------------------------------------------------------
	   Coordinate                Previous        Force       Change         New 
	   ----------                --------       ------       ------       ------
	    1 R(1,2)          =      1.556043    -0.000010    -0.000001     1.556042
	    2 R(1,3)          =      1.556043    -0.000009    -0.000001     1.556042
	    3 R(1,4)          =      1.708073     0.000007     0.000001     1.708074
	    4 R(1,5)          =      1.708073     0.000007     0.000001     1.708074
	    5 B(2,1,3)        =    108.760867     0.000000     0.000030   108.760897
	    6 B(2,1,4)        =    109.778379    -0.000000     0.000012   109.778391
	    7 B(2,1,5)        =    109.778379    -0.000000     0.000012   109.778391
	    8 B(3,1,4)        =    109.778382     0.000000     0.000015   109.778397
	    9 B(3,1,5)        =    109.778382     0.000000     0.000014   109.778397
	   10 B(4,1,5)        =    108.956222    -0.000000    -0.000083   108.956139
	 ---------------------------------------------------------------------------
	Successfully symmetrized geometry.

  ==> Convergence Check <==

  Measures of convergence in internal coordinates in au.
  Criteria marked as inactive (o), active & met (*), and active & unmet ( ).
  ---------------------------------------------------------------------------------------------
   Step     Total Energy     Delta E     MAX Force     RMS Force      MAX Disp      RMS Disp   
  ---------------------------------------------------------------------------------------------
    Convergence Criteria             o    2.00e-06 *    1.00e-06 *    6.00e-06 *    4.00e-06 *
  ---------------------------------------------------------------------------------------------
     16   -1394.77103565    9.43e-09 o    1.25e-06 *    6.69e-07 *    1.45e-06 *    9.79e-07 *  ~
  ---------------------------------------------------------------------------------------------


  **** Optimization is complete! (in 16 steps) ****

  ==> Optimization Summary <==

  Measures of convergence in internal coordinates in au.
  --------------------------------------------------------------------------------------------------------------- ~
   Step         Total Energy             Delta E       MAX Force       RMS Force        MAX Disp        RMS Disp  ~
  --------------------------------------------------------------------------------------------------------------- ~
      1   -1394.768493076608  -1394.768493076608      0.02632438      0.01394973      0.05463604      0.02195902  ~
      2   -1394.770021592245     -0.001528515637      0.01882386      0.00924708      0.02875368      0.01544929  ~
      3   -1394.770826824358     -0.000805232112      0.00795863      0.00412078      0.01718189      0.00882883  ~
      4   -1394.770997647093     -0.000170822736      0.00180893      0.00098008      0.00415265      0.00260933  ~
      5   -1394.771018048434     -0.000020401340      0.00077682      0.00032798      0.00455181      0.00168224  ~
      6   -1394.771031174656     -0.000013126223      0.00022299      0.00011737      0.00173767      0.00061129  ~
      7   -1394.771035575087     -0.000004400430      0.00014540      0.00006591      0.00007480      0.00003817  ~
      8   -1394.771035784574     -0.000000209487      0.00011012      0.00005028      0.00004942      0.00002348  ~
      9   -1394.771035796093     -0.000000011520      0.00008172      0.00003768      0.00004309      0.00002080  ~
     10   -1394.771035787561      0.000000008533      0.00005754      0.00002661      0.00003580      0.00001781  ~
     11   -1394.771035763720      0.000000023841      0.00003679      0.00001744      0.00002674      0.00001411  ~
     12   -1394.771035727798      0.000000035922      0.00002189      0.00001046      0.00001781      0.00001008  ~
     13   -1394.771035697244      0.000000030554      0.00001178      0.00000585      0.00001070      0.00000645  ~
     14   -1394.771035672756      0.000000024488      0.00000572      0.00000294      0.00000538      0.00000375  ~
     15   -1394.771035657018      0.000000015738      0.00000271      0.00000145      0.00000280      0.00000196  ~
     16   -1394.771035647583      0.000000009435      0.00000125      0.00000067      0.00000145      0.00000098  ~
  --------------------------------------------------------------------------------------------------------------- ~

	Writing optimization data to binary file.
	Final energy is  -1394.7710356475834
	Final (previous) structure:
	Cartesian Geometry (in Angstrom)
	   CR    -0.0010491990   0.0698235908  -0.0153679985
	    O     1.0193034299   0.8129138906  -0.9252944074
	    O    -1.0479968932   1.0966553763   0.5050027316
	    F    -0.7875225275  -1.1549862660  -0.9091314763
	    F     0.8145482422  -0.6435896323   1.3049937509
	Saving final (previous) structure.
			--------------------------
			 OPTKING Finished Execution 
			--------------------------

    Final optimized geometry and variables:
    Molecular point group: c1
    Full point group: C1

    Geometry (in Angstrom), charge = 0, multiplicity = 1:

    CR          -0.001049199014     0.069823591045    -0.015367998521
    O            1.019303433903     0.812913893810    -0.925294411066
    O           -1.047996897344     1.096655380571     0.505002733580
    F           -0.787522530551    -1.154986270560    -0.909131479846
    F            0.814548245365    -0.643589634839     1.304993756018

	Removing binary optimization data file.
	Cleaning optimization helper files.

    Psi4 stopped on: Saturday, 10 July 2021 03:29PM
    Psi4 wall time for execution: 0:06:45.48

*** Psi4 exiting successfully. Buy a developer a beer!
