
     Program PWSCF v.6.7MaX starts on 13Jul2021 at 19:51: 3 

     This program is part of the open-source Quantum ESPRESSO suite
     for quantum simulation of materials; please cite
         "P. Giannozzi et al., J. Phys.:Condens. Matter 21 395502 (2009);
         "P. Giannozzi et al., J. Phys.:Condens. Matter 29 465901 (2017);
          URL http://www.quantum-espresso.org", 
     in publications or presentations arising from this work. More details at
     http://www.quantum-espresso.org/quote

     Parallel version (MPI & OpenMP), running on       1 processor cores
     Number of MPI processes:                 1
     Threads/MPI process:                     1

     MPI processes distributed on     1 nodes
     Reading input from zns_sphalerite_exp_k2_444.in
Warning: card &CELL ignored
Warning: card / ignored

     Current dimensions of program PWSCF are:
     Max number of different atomic species (ntypx) = 10
     Max number of k-points (npk) =  40000
     Max angular momentum in pseudopotentials (lmaxx) =  3

     Subspace diagonalization in iterative solution of the eigenvalue problem:
     a serial algorithm will be used


     G-vector sticks info
     --------------------
     sticks:   dense  smooth     PW     G-vecs:    dense   smooth      PW
     Sum         721     583    169                12675     9185    1471



     bravais-lattice index     =            2
     lattice parameter (alat)  =      10.2221  a.u.
     unit-cell volume          =     267.0299 (a.u.)^3
     number of atoms/cell      =            2
     number of atomic types    =            2
     number of electrons       =        26.00
     number of Kohn-Sham states=           13
     kinetic-energy cutoff     =      40.0000  Ry
     charge density cutoff     =     200.0000  Ry
     scf convergence threshold =      1.0E-06
     mixing beta               =       0.7000
     number of iterations used =            8  plain     mixing
     Exchange-correlation=  SLA  PW   PBX  PBC
                           (   1   4   3   4   0   0   0)

     celldm(1)=  10.222096  celldm(2)=   0.000000  celldm(3)=   0.000000
     celldm(4)=   0.000000  celldm(5)=   0.000000  celldm(6)=   0.000000

     crystal axes: (cart. coord. in units of alat)
               a(1) = (  -0.500000   0.000000   0.500000 )  
               a(2) = (   0.000000   0.500000   0.500000 )  
               a(3) = (  -0.500000   0.500000   0.000000 )  

     reciprocal axes: (cart. coord. in units 2 pi/alat)
               b(1) = ( -1.000000 -1.000000  1.000000 )  
               b(2) = (  1.000000  1.000000  1.000000 )  
               b(3) = ( -1.000000  1.000000 -1.000000 )  


     PseudoPot. # 1 for Zn read from file:
     /home/antti/espresso/pseudo/zn_pbe_v1.uspp.F.UPF
     MD5 check sum: df62231357ef9e81f77b2b3087fa5675
     Pseudo is Ultrasoft, Zval = 20.0
     Generated by new atomic code, or converted to UPF format
     Using radial grid of  943 points,  6 beta functions with: 
                l(1) =   0
                l(2) =   0
                l(3) =   1
                l(4) =   1
                l(5) =   2
                l(6) =   2
     Q(r) pseudized with  8 coefficients,  rinner =    1.100   1.100   1.100
                                                       1.100   1.100

     PseudoPot. # 2 for S  read from file:
     /home/antti/espresso/pseudo/s_pbe_v1.4.uspp.F.UPF
     MD5 check sum: 88d86576ff6df21479756cfb9bdac1df
     Pseudo is Ultrasoft + core correction, Zval =  6.0
     Generated by new atomic code, or converted to UPF format
     Using radial grid of  907 points,  6 beta functions with: 
                l(1) =   0
                l(2) =   0
                l(3) =   1
                l(4) =   1
                l(5) =   2
                l(6) =   2
     Q(r) pseudized with  8 coefficients,  rinner =    1.300   1.300   1.300
                                                       1.300   1.300

     atomic species   valence    mass     pseudopotential
        Zn            20.00    65.38000     Zn( 1.00)
        S              6.00    32.06500     S ( 1.00)

     24 Sym. Ops. (no inversion) found



   Cartesian axes

     site n.     atom                  positions (alat units)
         1           Zn  tau(   1) = (   0.0000000   0.0000000   0.0000000  )
         2           S   tau(   2) = (  -0.7500000   0.7500000   0.7500000  )

     number of k points=     8
                       cart. coord. in units 2pi/alat
        k(    1) = (   0.0000000   0.0000000   0.0000000), wk =   0.0312500
        k(    2) = (  -0.2500000   0.2500000  -0.2500000), wk =   0.2500000
        k(    3) = (   0.5000000  -0.5000000   0.5000000), wk =   0.1250000
        k(    4) = (   0.0000000   0.5000000   0.0000000), wk =   0.1875000
        k(    5) = (   0.7500000  -0.2500000   0.7500000), wk =   0.7500000
        k(    6) = (   0.5000000   0.0000000   0.5000000), wk =   0.3750000
        k(    7) = (   0.0000000  -1.0000000   0.0000000), wk =   0.0937500
        k(    8) = (  -0.5000000  -1.0000000   0.0000000), wk =   0.1875000

     Dense  grid:    12675 G-vectors     FFT dimensions: (  36,  36,  36)

     Smooth grid:     9185 G-vectors     FFT dimensions: (  30,  30,  30)

     Estimated max dynamical RAM per process >      49.94 MB

     Initial potential from superposition of free atoms

     starting charge   25.99982, renormalised to   26.00000
     Starting wfcs are   17 randomized atomic wfcs

     total cpu time spent up to now is        0.6 secs

     Self-consistent Calculation

     iteration #  1     ecut=    40.00 Ry     beta= 0.70
     Davidson diagonalization with overlap
     ethr =  1.00E-02,  avg # of iterations =  1.2

     Threshold (ethr) on eigenvalues was too large:
     Diagonalizing with lowered threshold

     Davidson diagonalization with overlap
     ethr =  4.11E-04,  avg # of iterations =  2.0

     total cpu time spent up to now is        1.2 secs

     total energy              =    -485.72120478 Ry
     estimated scf accuracy    <       0.10910349 Ry

     iteration #  2     ecut=    40.00 Ry     beta= 0.70
     Davidson diagonalization with overlap
     ethr =  4.20E-04,  avg # of iterations =  2.5

     total cpu time spent up to now is        1.6 secs

     total energy              =    -485.74914857 Ry
     estimated scf accuracy    <       0.08061231 Ry

     iteration #  3     ecut=    40.00 Ry     beta= 0.70
     Davidson diagonalization with overlap
     ethr =  3.10E-04,  avg # of iterations =  2.0

     total cpu time spent up to now is        2.0 secs

     total energy              =    -485.76616738 Ry
     estimated scf accuracy    <       0.00282058 Ry

     iteration #  4     ecut=    40.00 Ry     beta= 0.70
     Davidson diagonalization with overlap
     ethr =  1.08E-05,  avg # of iterations =  2.6

     total cpu time spent up to now is        2.3 secs

     total energy              =    -485.76691141 Ry
     estimated scf accuracy    <       0.00018158 Ry

     iteration #  5     ecut=    40.00 Ry     beta= 0.70
     Davidson diagonalization with overlap
     ethr =  6.98E-07,  avg # of iterations =  2.0

     total cpu time spent up to now is        2.7 secs

     total energy              =    -485.76692269 Ry
     estimated scf accuracy    <       0.00001190 Ry

     iteration #  6     ecut=    40.00 Ry     beta= 0.70
     Davidson diagonalization with overlap
     ethr =  4.58E-08,  avg # of iterations =  2.5

     total cpu time spent up to now is        3.1 secs

     total energy              =    -485.76692440 Ry
     estimated scf accuracy    <       0.00000151 Ry

     iteration #  7     ecut=    40.00 Ry     beta= 0.70
     Davidson diagonalization with overlap
     ethr =  5.79E-09,  avg # of iterations =  3.2

     total cpu time spent up to now is        3.5 secs

     End of self-consistent calculation

          k = 0.0000 0.0000 0.0000 (  1139 PWs)   bands (ev):

  -118.1658 -72.3354 -72.3354 -72.3354  -6.3892   0.3850   0.3850   0.3850
     0.8789   0.8789   6.7345   6.7345   6.7345

          k =-0.2500 0.2500-0.2500 (  1146 PWs)   bands (ev):

  -118.1658 -72.3355 -72.3354 -72.3354  -5.9673   0.4348   0.4516   0.4516
     0.8805   0.8805   3.8997   6.2661   6.2661

          k = 0.5000-0.5000 0.5000 (  1158 PWs)   bands (ev):

  -118.1657 -72.3355 -72.3354 -72.3354  -5.4615   0.4993   0.4993   0.9089
     0.9089   1.0805   1.4494   5.8686   5.8686

          k = 0.0000 0.5000 0.0000 (  1118 PWs)   bands (ev):

  -118.1658 -72.3355 -72.3354 -72.3354  -5.8260   0.3386   0.5303   0.5303
     0.8398   0.9163   4.1611   5.5003   5.5003

          k = 0.7500-0.2500 0.7500 (  1141 PWs)   bands (ev):

  -118.1657 -72.3355 -72.3355 -72.3355  -5.3173   0.4695   0.6097   0.7223
     0.9221   1.0437   2.2579   4.3408   5.1419

          k = 0.5000 0.0000 0.5000 (  1135 PWs)   bands (ev):

  -118.1657 -72.3355 -72.3355 -72.3354  -5.4880   0.5080   0.5409   0.6662
     0.8642   0.9402   2.7790   4.2281   5.8315

          k = 0.0000-1.0000 0.0000 (  1138 PWs)   bands (ev):

  -118.1657 -72.3355 -72.3355 -72.3355  -5.1491   0.3629   0.7251   0.7251
     0.9536   1.0942   2.1713   4.5179   4.5179

          k =-0.5000-1.0000 0.0000 (  1144 PWs)   bands (ev):

  -118.1657 -72.3355 -72.3355 -72.3354  -5.1431   0.5188   0.6640   0.8218
     0.8415   1.2761   2.1455   3.9922   4.0252

     highest occupied level (ev):     6.7345

!    total energy              =    -485.76692472 Ry
     estimated scf accuracy    <       0.00000092 Ry

     The total energy is the sum of the following terms:
     one-electron contribution =    -455.12914524 Ry
     hartree contribution      =     234.45410115 Ry
     xc contribution           =     -50.70682700 Ry
     ewald contribution        =    -214.38505363 Ry

     convergence has been achieved in   7 iterations

     Writing output data file ./zns.save/

     init_run     :      0.46s CPU      0.48s WALL (       1 calls)
     electrons    :      2.66s CPU      2.84s WALL (       1 calls)

     Called by init_run:
     wfcinit      :      0.08s CPU      0.09s WALL (       1 calls)
     potinit      :      0.01s CPU      0.02s WALL (       1 calls)
     hinit0       :      0.30s CPU      0.30s WALL (       1 calls)

     Called by electrons:
     c_bands      :      1.37s CPU      1.39s WALL (       8 calls)
     sum_band     :      0.75s CPU      0.84s WALL (       8 calls)
     v_of_rho     :      0.11s CPU      0.12s WALL (       8 calls)
     newd         :      0.47s CPU      0.54s WALL (       8 calls)
     mix_rho      :      0.01s CPU      0.01s WALL (       8 calls)

     Called by c_bands:
     init_us_2    :      0.04s CPU      0.04s WALL (     136 calls)
     cegterg      :      1.30s CPU      1.31s WALL (      64 calls)

     Called by *egterg:
     cdiaghg      :      0.03s CPU      0.03s WALL (     201 calls)
     h_psi        :      1.22s CPU      1.23s WALL (     217 calls)
     s_psi        :      0.02s CPU      0.02s WALL (     217 calls)
     g_psi        :      0.01s CPU      0.01s WALL (     145 calls)

     Called by h_psi:
     h_psi:calbec :      0.05s CPU      0.05s WALL (     217 calls)
     vloc_psi     :      1.15s CPU      1.16s WALL (     217 calls)
     add_vuspsi   :      0.02s CPU      0.02s WALL (     217 calls)

     General routines
     calbec       :      0.06s CPU      0.06s WALL (     281 calls)
     fft          :      0.06s CPU      0.06s WALL (     103 calls)
     ffts         :      0.01s CPU      0.01s WALL (      16 calls)
     fftw         :      1.27s CPU      1.28s WALL (    5440 calls)
     interpolate  :      0.01s CPU      0.01s WALL (       8 calls)

     Parallel routines

     PWSCF        :      3.26s CPU      3.47s WALL


   This run was terminated on:  19:51: 6  13Jul2021            

=------------------------------------------------------------------------------=
   JOB DONE.
=------------------------------------------------------------------------------=
