
     Program PWSCF v.6.7MaX starts on 13Jul2021 at 19:51:15 

     This program is part of the open-source Quantum ESPRESSO suite
     for quantum simulation of materials; please cite
         "P. Giannozzi et al., J. Phys.:Condens. Matter 21 395502 (2009);
         "P. Giannozzi et al., J. Phys.:Condens. Matter 29 465901 (2017);
          URL http://www.quantum-espresso.org", 
     in publications or presentations arising from this work. More details at
     http://www.quantum-espresso.org/quote

     Parallel version (MPI & OpenMP), running on       1 processor cores
     Number of MPI processes:                 1
     Threads/MPI process:                     1

     MPI processes distributed on     1 nodes
     Reading input from zns_sphalerite_exp_k4_121212.in
Warning: card &CELL ignored
Warning: card / ignored

     Current dimensions of program PWSCF are:
     Max number of different atomic species (ntypx) = 10
     Max number of k-points (npk) =  40000
     Max angular momentum in pseudopotentials (lmaxx) =  3

     Subspace diagonalization in iterative solution of the eigenvalue problem:
     a serial algorithm will be used


     G-vector sticks info
     --------------------
     sticks:   dense  smooth     PW     G-vecs:    dense   smooth      PW
     Sum         721     583    187                12675     9185    1639



     bravais-lattice index     =            2
     lattice parameter (alat)  =      10.2221  a.u.
     unit-cell volume          =     267.0299 (a.u.)^3
     number of atoms/cell      =            2
     number of atomic types    =            2
     number of electrons       =        26.00
     number of Kohn-Sham states=           13
     kinetic-energy cutoff     =      40.0000  Ry
     charge density cutoff     =     200.0000  Ry
     scf convergence threshold =      1.0E-06
     mixing beta               =       0.7000
     number of iterations used =            8  plain     mixing
     Exchange-correlation=  SLA  PW   PBX  PBC
                           (   1   4   3   4   0   0   0)

     celldm(1)=  10.222096  celldm(2)=   0.000000  celldm(3)=   0.000000
     celldm(4)=   0.000000  celldm(5)=   0.000000  celldm(6)=   0.000000

     crystal axes: (cart. coord. in units of alat)
               a(1) = (  -0.500000   0.000000   0.500000 )  
               a(2) = (   0.000000   0.500000   0.500000 )  
               a(3) = (  -0.500000   0.500000   0.000000 )  

     reciprocal axes: (cart. coord. in units 2 pi/alat)
               b(1) = ( -1.000000 -1.000000  1.000000 )  
               b(2) = (  1.000000  1.000000  1.000000 )  
               b(3) = ( -1.000000  1.000000 -1.000000 )  


     PseudoPot. # 1 for Zn read from file:
     /home/antti/espresso/pseudo/zn_pbe_v1.uspp.F.UPF
     MD5 check sum: df62231357ef9e81f77b2b3087fa5675
     Pseudo is Ultrasoft, Zval = 20.0
     Generated by new atomic code, or converted to UPF format
     Using radial grid of  943 points,  6 beta functions with: 
                l(1) =   0
                l(2) =   0
                l(3) =   1
                l(4) =   1
                l(5) =   2
                l(6) =   2
     Q(r) pseudized with  8 coefficients,  rinner =    1.100   1.100   1.100
                                                       1.100   1.100

     PseudoPot. # 2 for S  read from file:
     /home/antti/espresso/pseudo/s_pbe_v1.4.uspp.F.UPF
     MD5 check sum: 88d86576ff6df21479756cfb9bdac1df
     Pseudo is Ultrasoft + core correction, Zval =  6.0
     Generated by new atomic code, or converted to UPF format
     Using radial grid of  907 points,  6 beta functions with: 
                l(1) =   0
                l(2) =   0
                l(3) =   1
                l(4) =   1
                l(5) =   2
                l(6) =   2
     Q(r) pseudized with  8 coefficients,  rinner =    1.300   1.300   1.300
                                                       1.300   1.300

     atomic species   valence    mass     pseudopotential
        Zn            20.00    65.38000     Zn( 1.00)
        S              6.00    32.06500     S ( 1.00)

     24 Sym. Ops. (no inversion) found



   Cartesian axes

     site n.     atom                  positions (alat units)
         1           Zn  tau(   1) = (   0.0000000   0.0000000   0.0000000  )
         2           S   tau(   2) = (  -0.7500000   0.7500000   0.7500000  )

     number of k points=    72
                       cart. coord. in units 2pi/alat
        k(    1) = (   0.0000000   0.0000000   0.0000000), wk =   0.0011574
        k(    2) = (  -0.0833333   0.0833333  -0.0833333), wk =   0.0092593
        k(    3) = (  -0.1666667   0.1666667  -0.1666667), wk =   0.0092593
        k(    4) = (  -0.2500000   0.2500000  -0.2500000), wk =   0.0092593
        k(    5) = (  -0.3333333   0.3333333  -0.3333333), wk =   0.0092593
        k(    6) = (  -0.4166667   0.4166667  -0.4166667), wk =   0.0092593
        k(    7) = (   0.5000000  -0.5000000   0.5000000), wk =   0.0046296
        k(    8) = (   0.0000000   0.1666667   0.0000000), wk =   0.0069444
        k(    9) = (  -0.0833333   0.2500000  -0.0833333), wk =   0.0277778
        k(   10) = (  -0.1666667   0.3333333  -0.1666667), wk =   0.0277778
        k(   11) = (  -0.2500000   0.4166667  -0.2500000), wk =   0.0277778
        k(   12) = (  -0.3333333   0.5000000  -0.3333333), wk =   0.0277778
        k(   13) = (   0.5833333  -0.4166667   0.5833333), wk =   0.0277778
        k(   14) = (   0.5000000  -0.3333333   0.5000000), wk =   0.0277778
        k(   15) = (   0.4166667  -0.2500000   0.4166667), wk =   0.0277778
        k(   16) = (   0.3333333  -0.1666667   0.3333333), wk =   0.0277778
        k(   17) = (   0.2500000  -0.0833333   0.2500000), wk =   0.0277778
        k(   18) = (   0.1666667  -0.0000000   0.1666667), wk =   0.0138889
        k(   19) = (   0.0000000   0.3333333   0.0000000), wk =   0.0069444
        k(   20) = (  -0.0833333   0.4166667  -0.0833333), wk =   0.0277778
        k(   21) = (  -0.1666667   0.5000000  -0.1666667), wk =   0.0277778
        k(   22) = (  -0.2500000   0.5833333  -0.2500000), wk =   0.0277778
        k(   23) = (   0.6666667  -0.3333333   0.6666667), wk =   0.0277778
        k(   24) = (   0.5833333  -0.2500000   0.5833333), wk =   0.0277778
        k(   25) = (   0.5000000  -0.1666667   0.5000000), wk =   0.0277778
        k(   26) = (   0.4166667  -0.0833333   0.4166667), wk =   0.0277778
        k(   27) = (   0.3333333   0.0000000   0.3333333), wk =   0.0138889
        k(   28) = (   0.0000000   0.5000000   0.0000000), wk =   0.0069444
        k(   29) = (  -0.0833333   0.5833333  -0.0833333), wk =   0.0277778
        k(   30) = (  -0.1666667   0.6666667  -0.1666667), wk =   0.0277778
        k(   31) = (   0.7500000  -0.2500000   0.7500000), wk =   0.0277778
        k(   32) = (   0.6666667  -0.1666667   0.6666667), wk =   0.0277778
        k(   33) = (   0.5833333  -0.0833333   0.5833333), wk =   0.0277778
        k(   34) = (   0.5000000   0.0000000   0.5000000), wk =   0.0138889
        k(   35) = (   0.0000000   0.6666667   0.0000000), wk =   0.0069444
        k(   36) = (  -0.0833333   0.7500000  -0.0833333), wk =   0.0277778
        k(   37) = (   0.8333333  -0.1666667   0.8333333), wk =   0.0277778
        k(   38) = (   0.7500000  -0.0833333   0.7500000), wk =   0.0277778
        k(   39) = (   0.6666667  -0.0000000   0.6666667), wk =   0.0138889
        k(   40) = (   0.0000000   0.8333333   0.0000000), wk =   0.0069444
        k(   41) = (   0.9166667  -0.0833333   0.9166667), wk =   0.0277778
        k(   42) = (   0.8333333   0.0000000   0.8333333), wk =   0.0138889
        k(   43) = (   0.0000000  -1.0000000   0.0000000), wk =   0.0034722
        k(   44) = (  -0.1666667   0.3333333   0.0000000), wk =   0.0277778
        k(   45) = (  -0.2500000   0.4166667  -0.0833333), wk =   0.0555556
        k(   46) = (  -0.3333333   0.5000000  -0.1666667), wk =   0.0555556
        k(   47) = (   0.5833333  -0.4166667   0.7500000), wk =   0.0555556
        k(   48) = (   0.5000000  -0.3333333   0.6666667), wk =   0.0277778
        k(   49) = (  -0.1666667   0.5000000   0.0000000), wk =   0.0277778
        k(   50) = (  -0.2500000   0.5833333  -0.0833333), wk =   0.0555556
        k(   51) = (   0.6666667  -0.3333333   0.8333333), wk =   0.0555556
        k(   52) = (   0.5833333  -0.2500000   0.7500000), wk =   0.0555556
        k(   53) = (   0.5000000  -0.1666667   0.6666667), wk =   0.0555556
        k(   54) = (   0.4166667  -0.0833333   0.5833333), wk =   0.0555556
        k(   55) = (   0.3333333   0.0000000   0.5000000), wk =   0.0277778
        k(   56) = (  -0.1666667   0.6666667  -0.0000000), wk =   0.0277778
        k(   57) = (   0.7500000  -0.2500000   0.9166667), wk =   0.0555556
        k(   58) = (   0.6666667  -0.1666667   0.8333333), wk =   0.0555556
        k(   59) = (   0.5833333  -0.0833333   0.7500000), wk =   0.0555556
        k(   60) = (   0.5000000   0.0000000   0.6666667), wk =   0.0277778
        k(   61) = (   0.8333333  -0.1666667   1.0000000), wk =   0.0277778
        k(   62) = (   0.7500000  -0.0833333   0.9166667), wk =   0.0555556
        k(   63) = (   0.6666667   0.0000000   0.8333333), wk =   0.0277778
        k(   64) = (  -0.1666667  -1.0000000  -0.0000000), wk =   0.0138889
        k(   65) = (   0.6666667  -0.3333333   1.0000000), wk =   0.0277778
        k(   66) = (   0.5833333  -0.2500000   0.9166667), wk =   0.0555556
        k(   67) = (   0.5000000  -0.1666667   0.8333333), wk =   0.0277778
        k(   68) = (   0.6666667  -0.1666667   1.0000000), wk =   0.0277778
        k(   69) = (   0.5833333  -0.0833333   0.9166667), wk =   0.0555556
        k(   70) = (   0.5000000   0.0000000   0.8333333), wk =   0.0277778
        k(   71) = (  -0.3333333  -1.0000000   0.0000000), wk =   0.0138889
        k(   72) = (  -0.5000000  -1.0000000   0.0000000), wk =   0.0069444

     Dense  grid:    12675 G-vectors     FFT dimensions: (  36,  36,  36)

     Smooth grid:     9185 G-vectors     FFT dimensions: (  30,  30,  30)

     Estimated max dynamical RAM per process >      64.42 MB

     Initial potential from superposition of free atoms

     starting charge   25.99982, renormalised to   26.00000
     Starting wfcs are   17 randomized atomic wfcs

     total cpu time spent up to now is        1.6 secs

     Self-consistent Calculation

     iteration #  1     ecut=    40.00 Ry     beta= 0.70
     Davidson diagonalization with overlap
     ethr =  1.00E-02,  avg # of iterations =  1.0

     Threshold (ethr) on eigenvalues was too large:
     Diagonalizing with lowered threshold

     Davidson diagonalization with overlap
     ethr =  4.03E-04,  avg # of iterations =  2.0

     total cpu time spent up to now is        5.0 secs

     total energy              =    -485.72561643 Ry
     estimated scf accuracy    <       0.10601456 Ry

     iteration #  2     ecut=    40.00 Ry     beta= 0.70
     Davidson diagonalization with overlap
     ethr =  4.08E-04,  avg # of iterations =  2.6

     total cpu time spent up to now is        7.1 secs

     total energy              =    -485.75299702 Ry
     estimated scf accuracy    <       0.08006609 Ry

     iteration #  3     ecut=    40.00 Ry     beta= 0.70
     Davidson diagonalization with overlap
     ethr =  3.08E-04,  avg # of iterations =  2.0

     total cpu time spent up to now is        9.2 secs

     total energy              =    -485.76960922 Ry
     estimated scf accuracy    <       0.00264588 Ry

     iteration #  4     ecut=    40.00 Ry     beta= 0.70
     Davidson diagonalization with overlap
     ethr =  1.02E-05,  avg # of iterations =  2.9

     total cpu time spent up to now is       11.5 secs

     total energy              =    -485.77033489 Ry
     estimated scf accuracy    <       0.00017798 Ry

     iteration #  5     ecut=    40.00 Ry     beta= 0.70
     Davidson diagonalization with overlap
     ethr =  6.85E-07,  avg # of iterations =  2.1

     total cpu time spent up to now is       13.3 secs

     total energy              =    -485.77034643 Ry
     estimated scf accuracy    <       0.00001336 Ry

     iteration #  6     ecut=    40.00 Ry     beta= 0.70
     Davidson diagonalization with overlap
     ethr =  5.14E-08,  avg # of iterations =  2.5

     total cpu time spent up to now is       15.3 secs

     total energy              =    -485.77034855 Ry
     estimated scf accuracy    <       0.00000130 Ry

     iteration #  7     ecut=    40.00 Ry     beta= 0.70
     Davidson diagonalization with overlap
     ethr =  4.98E-09,  avg # of iterations =  3.6

     total cpu time spent up to now is       17.8 secs

     End of self-consistent calculation

          k = 0.0000 0.0000 0.0000 (  1139 PWs)   bands (ev):

  -118.1657 -72.3350 -72.3350 -72.3350  -6.4162   0.3830   0.3830   0.3830
     0.8800   0.8800   6.7092   6.7092   6.7092

          k =-0.0833 0.0833-0.0833 (  1143 PWs)   bands (ev):

  -118.1657 -72.3350 -72.3350 -72.3350  -6.3635   0.3827   0.3926   0.3926
     0.8791   0.8791   6.1215   6.6408   6.6408

          k =-0.1667 0.1667-0.1667 (  1149 PWs)   bands (ev):

  -118.1657 -72.3350 -72.3350 -72.3350  -6.2142   0.3905   0.4181   0.4181
     0.8781   0.8781   5.0288   6.4641   6.4641

          k =-0.2500 0.2500-0.2500 (  1146 PWs)   bands (ev):

  -118.1656 -72.3350 -72.3350 -72.3350  -5.9955   0.4319   0.4497   0.4497
     0.8815   0.8815   3.8833   6.2421   6.2421

          k =-0.3333 0.3333-0.3333 (  1149 PWs)   bands (ev):

  -118.1656 -72.3350 -72.3350 -72.3350  -5.7564   0.4767   0.4767   0.5478
     0.8917   0.8917   2.8286   6.0373   6.0373

          k =-0.4167 0.4167-0.4167 (  1149 PWs)   bands (ev):

  -118.1656 -72.3350 -72.3350 -72.3350  -5.5653   0.4927   0.4927   0.7870
     0.9042   0.9042   1.9536   5.8957   5.8957

          k = 0.5000-0.5000 0.5000 (  1158 PWs)   bands (ev):

  -118.1656 -72.3350 -72.3350 -72.3350  -5.4914   0.4977   0.4977   0.9100
     0.9100   1.0804   1.4339   5.8453   5.8453

          k = 0.0000 0.1667 0.0000 (  1147 PWs)   bands (ev):

  -118.1657 -72.3350 -72.3350 -72.3350  -6.3459   0.3737   0.4004   0.4004
     0.8723   0.8850   6.1288   6.5164   6.5164

          k =-0.0833 0.2500-0.0833 (  1153 PWs)   bands (ev):

  -118.1657 -72.3350 -72.3350 -72.3350  -6.2288   0.3715   0.4237   0.4252
     0.8655   0.8894   5.3052   6.2989   6.3858

          k =-0.1667 0.3333-0.1667 (  1139 PWs)   bands (ev):

  -118.1656 -72.3350 -72.3350 -72.3350  -6.0327   0.3937   0.4579   0.4580
     0.8642   0.8948   4.2333   6.0601   6.1837

          k =-0.2500 0.4167-0.2500 (  1137 PWs)   bands (ev):

  -118.1656 -72.3350 -72.3350 -72.3350  -5.7988   0.4495   0.4875   0.5177
     0.8745   0.9031   3.1786   5.8623   5.9314

          k =-0.3333 0.5000-0.3333 (  1142 PWs)   bands (ev):

  -118.1656 -72.3350 -72.3350 -72.3350  -5.5889   0.4847   0.5058   0.6879
     0.9027   0.9112   2.2580   5.6986   5.7479

          k = 0.5833-0.4167 0.5833 (  1145 PWs)   bands (ev):

  -118.1656 -72.3350 -72.3350 -72.3350  -5.4734   0.4972   0.5119   0.8682
     0.9113   1.0498   1.5866   5.5361   5.7388

          k = 0.5000-0.3333 0.5000 (  1142 PWs)   bands (ev):

  -118.1656 -72.3350 -72.3350 -72.3350  -5.4981   0.4987   0.5072   0.8502
     0.8997   0.9671   1.7696   5.4756   5.8360

          k = 0.4167-0.2500 0.4167 (  1137 PWs)   bands (ev):

  -118.1656 -72.3350 -72.3350 -72.3350  -5.6527   0.4895   0.4914   0.6175
     0.8821   0.9139   2.5453   5.5311   6.0198

          k = 0.3333-0.1667 0.3333 (  1134 PWs)   bands (ev):

  -118.1656 -72.3350 -72.3350 -72.3350  -5.8786   0.4519   0.4644   0.4837
     0.8693   0.9001   3.5180   5.6998   6.2517

          k = 0.2500-0.0833 0.2500 (  1146 PWs)   bands (ev):

  -118.1657 -72.3350 -72.3350 -72.3350  -6.1056   0.3959   0.4318   0.4469
     0.8666   0.8903   4.5763   5.9659   6.4755

          k = 0.1667-0.0000 0.1667 (  1159 PWs)   bands (ev):

  -118.1657 -72.3350 -72.3350 -72.3350  -6.2786   0.3808   0.4046   0.4150
     0.8717   0.8844   5.5441   6.3128   6.6241

          k = 0.0000 0.3333 0.0000 (  1154 PWs)   bands (ev):

  -118.1657 -72.3350 -72.3350 -72.3350  -6.1467   0.3523   0.4511   0.4511
     0.8536   0.8987   5.1357   6.0427   6.0427

          k =-0.0833 0.4167-0.0833 (  1143 PWs)   bands (ev):

  -118.1656 -72.3350 -72.3350 -72.3350  -5.9827   0.3552   0.4872   0.4882
     0.8486   0.9069   4.4039   5.7759   5.7969

          k =-0.1667 0.5000-0.1667 (  1137 PWs)   bands (ev):

  -118.1656 -72.3350 -72.3350 -72.3350  -5.7700   0.3965   0.5213   0.5362
     0.8612   0.9149   3.4925   5.4956   5.5650

          k =-0.2500 0.5833-0.2500 (  1136 PWs)   bands (ev):

  -118.1656 -72.3350 -72.3350 -72.3350  -5.5617   0.4596   0.5439   0.6307
     0.9068   0.9198   2.6148   5.1683   5.4540

          k = 0.6667-0.3333 0.6667 (  1133 PWs)   bands (ev):

  -118.1656 -72.3350 -72.3350 -72.3350  -5.4222   0.4912   0.5518   0.7823
     0.9154   1.0362   1.9087   4.8931   5.4646

          k = 0.5833-0.2500 0.5833 (  1145 PWs)   bands (ev):

  -118.1656 -72.3350 -72.3350 -72.3350  -5.4029   0.5015   0.5463   0.8404
     0.8990   1.0858   1.7610   4.7254   5.5945

          k = 0.5000-0.1667 0.5000 (  1144 PWs)   bands (ev):

  -118.1656 -72.3350 -72.3350 -72.3350  -5.5113   0.5026   0.5279   0.7150
     0.8774   0.9437   2.3598   4.7057   5.8176

          k = 0.4167-0.0833 0.4167 (  1140 PWs)   bands (ev):

  -118.1656 -72.3350 -72.3350 -72.3350  -5.7059   0.4906   0.4976   0.5353
     0.8622   0.9201   3.1705   4.8774   6.0853

          k = 0.3333 0.0000 0.3333 (  1141 PWs)   bands (ev):

  -118.1656 -72.3350 -72.3350 -72.3350  -5.9231   0.4290   0.4618   0.4789
     0.8594   0.9041   3.9645   5.3069   6.3303

          k = 0.0000 0.5000 0.0000 (  1118 PWs)   bands (ev):

  -118.1656 -72.3350 -72.3350 -72.3350  -5.8546   0.3355   0.5287   0.5287
     0.8407   0.9174   4.1445   5.4785   5.4785

          k =-0.0833 0.5833-0.0833 (  1137 PWs)   bands (ev):

  -118.1656 -72.3350 -72.3350 -72.3350  -5.6752   0.3523   0.5696   0.5740
     0.8549   0.9261   3.5472   5.1573   5.2411

          k =-0.1667 0.6667-0.1667 (  1139 PWs)   bands (ev):

  -118.1656 -72.3350 -72.3350 -72.3350  -5.4880   0.4098   0.5980   0.6300
     0.9134   0.9300   2.8633   4.7346   5.1132

          k = 0.7500-0.2500 0.7500 (  1141 PWs)   bands (ev):

  -118.1656 -72.3350 -72.3350 -72.3350  -5.3477   0.4670   0.6084   0.7215
     0.9232   1.0431   2.2446   4.3222   5.1204

          k = 0.6667-0.1667 0.6667 (  1140 PWs)   bands (ev):

  -118.1656 -72.3350 -72.3350 -72.3350  -5.3019   0.4934   0.6009   0.8085
     0.9040   1.1611   1.9354   4.0308   5.2616

          k = 0.5833-0.0833 0.5833 (  1141 PWs)   bands (ev):

  -118.1656 -72.3350 -72.3350 -72.3350  -5.3666   0.5044   0.5768   0.8137
     0.8808   1.0099   2.2519   3.9501   5.5087

          k = 0.5000 0.0000 0.5000 (  1135 PWs)   bands (ev):

  -118.1656 -72.3350 -72.3350 -72.3350  -5.5178   0.5063   0.5393   0.6636
     0.8652   0.9405   2.7651   4.2098   5.8085

          k = 0.0000 0.6667 0.0000 (  1134 PWs)   bands (ev):

  -118.1656 -72.3350 -72.3350 -72.3350  -5.5348   0.3378   0.6184   0.6184
     0.8695   0.9361   3.2371   4.9717   4.9717

          k =-0.0833 0.7500-0.0833 (  1136 PWs)   bands (ev):

  -118.1656 -72.3350 -72.3350 -72.3350  -5.3844   0.3653   0.6535   0.6601
     0.9318   0.9412   2.7864   4.6386   4.8142

          k = 0.8333-0.1667 0.8333 (  1139 PWs)   bands (ev):

  -118.1656 -72.3350 -72.3350 -72.3350  -5.2673   0.4210   0.6667   0.7066
     0.9350   1.0603   2.3687   4.1447   4.8006

          k = 0.7500-0.0833 0.7500 (  1138 PWs)   bands (ev):

  -118.1656 -72.3350 -72.3350 -72.3350  -5.2206   0.4675   0.6565   0.7690
     0.9165   1.1988   2.1072   3.7081   4.9343

          k = 0.6667-0.0000 0.6667 (  1141 PWs)   bands (ev):

  -118.1656 -72.3350 -72.3350 -72.3350  -5.2585   0.4929   0.6242   0.8216
     0.8949   1.1560   2.1365   3.5760   5.1883

          k = 0.0000 0.8333 0.0000 (  1138 PWs)   bands (ev):

  -118.1656 -72.3350 -72.3350 -72.3350  -5.2791   0.3522   0.6940   0.6940
     0.9498   0.9838   2.4989   4.6222   4.6222

          k = 0.9167-0.0833 0.9167 (  1136 PWs)   bands (ev):

  -118.1656 -72.3350 -72.3350 -72.3350  -5.2042   0.3767   0.7091   0.7168
     0.9484   1.0822   2.2450   4.3502   4.5772

          k = 0.8333 0.0000 0.8333 (  1144 PWs)   bands (ev):

  -118.1656 -72.3350 -72.3350 -72.3350  -5.1833   0.4237   0.6960   0.7374
     0.9344   1.1784   2.1380   3.9203   4.6889

          k = 0.0000-1.0000 0.0000 (  1138 PWs)   bands (ev):

  -118.1656 -72.3350 -72.3350 -72.3350  -5.1802   0.3590   0.7243   0.7243
     0.9548   1.0938   2.1607   4.4971   4.4971

          k =-0.1667 0.3333 0.0000 (  1144 PWs)   bands (ev):

  -118.1656 -72.3350 -72.3350 -72.3350  -6.0879   0.3729   0.4510   0.4579
     0.8579   0.8973   4.6849   5.8215   6.2876

          k =-0.2500 0.4167-0.0833 (  1139 PWs)   bands (ev):

  -118.1656 -72.3350 -72.3350 -72.3350  -5.8828   0.4077   0.4862   0.4965
     0.8586   0.9071   3.8108   5.4140   6.0990

          k =-0.3333 0.5000-0.1667 (  1141 PWs)   bands (ev):

  -118.1656 -72.3350 -72.3350 -72.3350  -5.6604   0.4689   0.5119   0.5790
     0.8753   0.9192   2.8862   5.1607   5.8583

          k = 0.5833-0.4167 0.7500 (  1137 PWs)   bands (ev):

  -118.1656 -72.3350 -72.3350 -72.3350  -5.4843   0.4972   0.5282   0.7589
     0.9027   0.9604   2.0810   5.0332   5.6583

          k = 0.5000-0.3333 0.6667 (  1136 PWs)   bands (ev):

  -118.1656 -72.3350 -72.3350 -72.3350  -5.4167   0.5029   0.5341   0.8473
     0.9040   1.1191   1.6368   4.9977   5.5790

          k =-0.1667 0.5000 0.0000 (  1135 PWs)   bands (ev):

  -118.1656 -72.3350 -72.3350 -72.3350  -5.8101   0.3674   0.5215   0.5341
     0.8503   0.9166   3.8468   5.2513   5.6745

          k =-0.2500 0.5833-0.0833 (  1135 PWs)   bands (ev):

  -118.1656 -72.3350 -72.3350 -72.3350  -5.6089   0.4208   0.5478   0.5951
     0.8766   0.9259   3.1369   4.8406   5.4579

          k = 0.6667-0.3333 0.8333 (  1136 PWs)   bands (ev):

  -118.1656 -72.3350 -72.3350 -72.3350  -5.4332   0.4797   0.5673   0.6977
     0.9133   0.9696   2.4190   4.5590   5.2751

          k = 0.5833-0.2500 0.7500 (  1140 PWs)   bands (ev):

  -118.1656 -72.3350 -72.3350 -72.3350  -5.3403   0.5029   0.5748   0.8051
     0.9018   1.1270   1.9009   4.3644   5.2442

          k = 0.5000-0.1667 0.6667 (  1146 PWs)   bands (ev):

  -118.1656 -72.3350 -72.3350 -72.3350  -5.3640   0.5102   0.5634   0.8118
     0.8910   1.0579   2.0364   4.2756   5.3800

          k = 0.4167-0.0833 0.5833 (  1143 PWs)   bands (ev):

  -118.1656 -72.3350 -72.3350 -72.3350  -5.4952   0.5084   0.5313   0.6780
     0.8806   0.9446   2.6428   4.3658   5.6263

          k = 0.3333 0.0000 0.5000 (  1141 PWs)   bands (ev):

  -118.1656 -72.3350 -72.3350 -72.3350  -5.6875   0.4595   0.5091   0.5565
     0.8622   0.9224   3.2925   4.7403   5.8999

          k =-0.1667 0.6667-0.0000 (  1146 PWs)   bands (ev):

  -118.1656 -72.3350 -72.3350 -72.3350  -5.5088   0.3776   0.5988   0.6298
     0.8900   0.9339   3.0844   4.7554   5.0461

          k = 0.7500-0.2500 0.9167 (  1140 PWs)   bands (ev):

  -118.1656 -72.3350 -72.3350 -72.3350  -5.3552   0.4352   0.6183   0.6902
     0.9269   0.9878   2.5835   4.3410   4.8679

          k = 0.6667-0.1667 0.8333 (  1142 PWs)   bands (ev):

  -118.1656 -72.3350 -72.3350 -72.3350  -5.2614   0.4818   0.6286   0.7623
     0.9105   1.1403   2.1630   3.9536   4.8630

          k = 0.5833-0.0833 0.7500 (  1140 PWs)   bands (ev):

  -118.1656 -72.3350 -72.3350 -72.3350  -5.2584   0.5035   0.6149   0.8241
     0.8824   1.1729   2.0850   3.7281   5.0317

          k = 0.5000 0.0000 0.6667 (  1141 PWs)   bands (ev):

  -118.1656 -72.3350 -72.3350 -72.3350  -5.3464   0.5144   0.5762   0.7941
     0.8829   1.0190   2.3696   3.8294   5.3139

          k = 0.8333-0.1667 1.0000 (  1145 PWs)   bands (ev):

  -118.1656 -72.3350 -72.3350 -72.3350  -5.2703   0.3919   0.6715   0.7051
     0.9409   1.0234   2.4525   4.4347   4.5747

          k = 0.7500-0.0833 0.9167 (  1141 PWs)   bands (ev):

  -118.1656 -72.3350 -72.3350 -72.3350  -5.2010   0.4398   0.6778   0.7398
     0.9266   1.1565   2.2026   4.0152   4.5454

          k = 0.6667 0.0000 0.8333 (  1148 PWs)   bands (ev):

  -118.1656 -72.3350 -72.3350 -72.3350  -5.1974   0.4802   0.6599   0.7835
     0.9021   1.2324   2.1105   3.6572   4.7268

          k =-0.1667-1.0000-0.0000 (  1140 PWs)   bands (ev):

  -118.1656 -72.3350 -72.3350 -72.3350  -5.1787   0.3968   0.7054   0.7319
     0.9428   1.1405   2.1546   4.3574   4.3668

          k = 0.6667-0.3333 1.0000 (  1138 PWs)   bands (ev):

  -118.1656 -72.3350 -72.3350 -72.3350  -5.4387   0.4762   0.5619   0.6788
     0.9029   0.9542   2.7347   4.2833   5.2052

          k = 0.5833-0.2500 0.9167 (  1141 PWs)   bands (ev):

  -118.1656 -72.3350 -72.3350 -72.3350  -5.3078   0.5116   0.5870   0.7719
     0.8959   1.0715   2.2882   3.9898   4.9476

          k = 0.5000-0.1667 0.8333 (  1144 PWs)   bands (ev):

  -118.1656 -72.3350 -72.3350 -72.3350  -5.2584   0.5166   0.6030   0.8275
     0.8700   1.1896   2.0374   3.9138   4.8390

          k = 0.6667-0.1667 1.0000 (  1137 PWs)   bands (ev):

  -118.1656 -72.3350 -72.3350 -72.3350  -5.2477   0.4785   0.6334   0.7483
     0.9103   1.1108   2.3206   4.0419   4.5314

          k = 0.5833-0.0833 0.9167 (  1144 PWs)   bands (ev):

  -118.1656 -72.3350 -72.3350 -72.3350  -5.1977   0.5066   0.6473   0.7994
     0.8753   1.2329   2.1407   3.8062   4.4128

          k = 0.5000 0.0000 0.8333 (  1135 PWs)   bands (ev):

  -118.1656 -72.3350 -72.3350 -72.3350  -5.2204   0.5178   0.6265   0.8284
     0.8558   1.2027   2.1677   3.7196   4.6044

          k =-0.3333-1.0000 0.0000 (  1142 PWs)   bands (ev):

  -118.1656 -72.3350 -72.3350 -72.3350  -5.1757   0.4763   0.6758   0.7635
     0.9027   1.2305   2.1403   4.0968   4.1227

          k =-0.5000-1.0000 0.0000 (  1144 PWs)   bands (ev):

  -118.1656 -72.3350 -72.3350 -72.3350  -5.1743   0.5165   0.6635   0.8215
     0.8422   1.2756   2.1318   3.9730   4.0073

     highest occupied level (ev):     6.7092

!    total energy              =    -485.77034897 Ry
     estimated scf accuracy    <       0.00000068 Ry

     The total energy is the sum of the following terms:
     one-electron contribution =    -455.12075404 Ry
     hartree contribution      =     234.43601543 Ry
     xc contribution           =     -50.70055674 Ry
     ewald contribution        =    -214.38505363 Ry

     convergence has been achieved in   7 iterations

     Writing output data file ./zns.save/

     init_run     :      1.38s CPU      1.41s WALL (       1 calls)
     electrons    :     16.02s CPU     16.27s WALL (       1 calls)

     Called by init_run:
     wfcinit      :      0.77s CPU      0.77s WALL (       1 calls)
     potinit      :      0.04s CPU      0.05s WALL (       1 calls)
     hinit0       :      0.50s CPU      0.50s WALL (       1 calls)

     Called by electrons:
     c_bands      :     12.75s CPU     12.81s WALL (       8 calls)
     sum_band     :      2.73s CPU      2.85s WALL (       8 calls)
     v_of_rho     :      0.11s CPU      0.13s WALL (       8 calls)
     newd         :      0.48s CPU      0.55s WALL (       8 calls)
     mix_rho      :      0.01s CPU      0.01s WALL (       8 calls)

     Called by c_bands:
     init_us_2    :      0.34s CPU      0.34s WALL (    1224 calls)
     cegterg      :     12.03s CPU     12.09s WALL (     576 calls)

     Called by *egterg:
     cdiaghg      :      0.28s CPU      0.28s WALL (    1847 calls)
     h_psi        :     11.31s CPU     11.36s WALL (    1991 calls)
     s_psi        :      0.17s CPU      0.17s WALL (    1991 calls)
     g_psi        :      0.06s CPU      0.06s WALL (    1343 calls)

     Called by h_psi:
     h_psi:calbec :      0.41s CPU      0.41s WALL (    1991 calls)
     vloc_psi     :     10.69s CPU     10.74s WALL (    1991 calls)
     add_vuspsi   :      0.18s CPU      0.18s WALL (    1991 calls)

     General routines
     calbec       :      0.54s CPU      0.54s WALL (    2567 calls)
     fft          :      0.06s CPU      0.06s WALL (     103 calls)
     ffts         :      0.01s CPU      0.01s WALL (      16 calls)
     fftw         :     11.76s CPU     11.82s WALL (   49234 calls)
     interpolate  :      0.01s CPU      0.01s WALL (       8 calls)

     Parallel routines

     PWSCF        :     17.55s CPU     17.85s WALL


   This run was terminated on:  19:51:32  13Jul2021            

=------------------------------------------------------------------------------=
   JOB DONE.
=------------------------------------------------------------------------------=
