
     Program PWSCF v.6.7MaX starts on 13Jul2021 at 19:51: 0 

     This program is part of the open-source Quantum ESPRESSO suite
     for quantum simulation of materials; please cite
         "P. Giannozzi et al., J. Phys.:Condens. Matter 21 395502 (2009);
         "P. Giannozzi et al., J. Phys.:Condens. Matter 29 465901 (2017);
          URL http://www.quantum-espresso.org", 
     in publications or presentations arising from this work. More details at
     http://www.quantum-espresso.org/quote

     Parallel version (MPI & OpenMP), running on       1 processor cores
     Number of MPI processes:                 1
     Threads/MPI process:                     1

     MPI processes distributed on     1 nodes
     Reading input from zns_sphalerite_exp_k1_222.in
Warning: card &CELL ignored
Warning: card / ignored

     Current dimensions of program PWSCF are:
     Max number of different atomic species (ntypx) = 10
     Max number of k-points (npk) =  40000
     Max angular momentum in pseudopotentials (lmaxx) =  3

     Subspace diagonalization in iterative solution of the eigenvalue problem:
     a serial algorithm will be used


     G-vector sticks info
     --------------------
     sticks:   dense  smooth     PW     G-vecs:    dense   smooth      PW
     Sum         721     583    163                12675     9185    1459



     bravais-lattice index     =            2
     lattice parameter (alat)  =      10.2221  a.u.
     unit-cell volume          =     267.0299 (a.u.)^3
     number of atoms/cell      =            2
     number of atomic types    =            2
     number of electrons       =        26.00
     number of Kohn-Sham states=           13
     kinetic-energy cutoff     =      40.0000  Ry
     charge density cutoff     =     200.0000  Ry
     scf convergence threshold =      1.0E-06
     mixing beta               =       0.7000
     number of iterations used =            8  plain     mixing
     Exchange-correlation=  SLA  PW   PBX  PBC
                           (   1   4   3   4   0   0   0)

     celldm(1)=  10.222096  celldm(2)=   0.000000  celldm(3)=   0.000000
     celldm(4)=   0.000000  celldm(5)=   0.000000  celldm(6)=   0.000000

     crystal axes: (cart. coord. in units of alat)
               a(1) = (  -0.500000   0.000000   0.500000 )  
               a(2) = (   0.000000   0.500000   0.500000 )  
               a(3) = (  -0.500000   0.500000   0.000000 )  

     reciprocal axes: (cart. coord. in units 2 pi/alat)
               b(1) = ( -1.000000 -1.000000  1.000000 )  
               b(2) = (  1.000000  1.000000  1.000000 )  
               b(3) = ( -1.000000  1.000000 -1.000000 )  


     PseudoPot. # 1 for Zn read from file:
     /home/antti/espresso/pseudo/zn_pbe_v1.uspp.F.UPF
     MD5 check sum: df62231357ef9e81f77b2b3087fa5675
     Pseudo is Ultrasoft, Zval = 20.0
     Generated by new atomic code, or converted to UPF format
     Using radial grid of  943 points,  6 beta functions with: 
                l(1) =   0
                l(2) =   0
                l(3) =   1
                l(4) =   1
                l(5) =   2
                l(6) =   2
     Q(r) pseudized with  8 coefficients,  rinner =    1.100   1.100   1.100
                                                       1.100   1.100

     PseudoPot. # 2 for S  read from file:
     /home/antti/espresso/pseudo/s_pbe_v1.4.uspp.F.UPF
     MD5 check sum: 88d86576ff6df21479756cfb9bdac1df
     Pseudo is Ultrasoft + core correction, Zval =  6.0
     Generated by new atomic code, or converted to UPF format
     Using radial grid of  907 points,  6 beta functions with: 
                l(1) =   0
                l(2) =   0
                l(3) =   1
                l(4) =   1
                l(5) =   2
                l(6) =   2
     Q(r) pseudized with  8 coefficients,  rinner =    1.300   1.300   1.300
                                                       1.300   1.300

     atomic species   valence    mass     pseudopotential
        Zn            20.00    65.38000     Zn( 1.00)
        S              6.00    32.06500     S ( 1.00)

     24 Sym. Ops. (no inversion) found



   Cartesian axes

     site n.     atom                  positions (alat units)
         1           Zn  tau(   1) = (   0.0000000   0.0000000   0.0000000  )
         2           S   tau(   2) = (  -0.7500000   0.7500000   0.7500000  )

     number of k points=     3
                       cart. coord. in units 2pi/alat
        k(    1) = (   0.0000000   0.0000000   0.0000000), wk =   0.2500000
        k(    2) = (   0.5000000  -0.5000000   0.5000000), wk =   1.0000000
        k(    3) = (   0.0000000  -1.0000000   0.0000000), wk =   0.7500000

     Dense  grid:    12675 G-vectors     FFT dimensions: (  36,  36,  36)

     Smooth grid:     9185 G-vectors     FFT dimensions: (  30,  30,  30)

     Estimated max dynamical RAM per process >      48.80 MB

     Initial potential from superposition of free atoms

     starting charge   25.99982, renormalised to   26.00000
     Starting wfcs are   17 randomized atomic wfcs

     total cpu time spent up to now is        0.8 secs

     Self-consistent Calculation

     iteration #  1     ecut=    40.00 Ry     beta= 0.70
     Davidson diagonalization with overlap
     ethr =  1.00E-02,  avg # of iterations =  1.3

     Threshold (ethr) on eigenvalues was too large:
     Diagonalizing with lowered threshold

     Davidson diagonalization with overlap
     ethr =  6.27E-04,  avg # of iterations =  1.7

     total cpu time spent up to now is        1.2 secs

     total energy              =    -485.61575783 Ry
     estimated scf accuracy    <       0.16146596 Ry

     iteration #  2     ecut=    40.00 Ry     beta= 0.70
     Davidson diagonalization with overlap
     ethr =  6.21E-04,  avg # of iterations =  2.3

     total cpu time spent up to now is        1.4 secs

     total energy              =    -485.65746897 Ry
     estimated scf accuracy    <       0.08836702 Ry

     iteration #  3     ecut=    40.00 Ry     beta= 0.70
     Davidson diagonalization with overlap
     ethr =  3.40E-04,  avg # of iterations =  2.0

     total cpu time spent up to now is        1.7 secs

     total energy              =    -485.67715788 Ry
     estimated scf accuracy    <       0.00487644 Ry

     iteration #  4     ecut=    40.00 Ry     beta= 0.70
     Davidson diagonalization with overlap
     ethr =  1.88E-05,  avg # of iterations =  2.0

     total cpu time spent up to now is        1.9 secs

     total energy              =    -485.67823935 Ry
     estimated scf accuracy    <       0.00022587 Ry

     iteration #  5     ecut=    40.00 Ry     beta= 0.70
     Davidson diagonalization with overlap
     ethr =  8.69E-07,  avg # of iterations =  2.7

     total cpu time spent up to now is        2.2 secs

     total energy              =    -485.67825407 Ry
     estimated scf accuracy    <       0.00002261 Ry

     iteration #  6     ecut=    40.00 Ry     beta= 0.70
     Davidson diagonalization with overlap
     ethr =  8.70E-08,  avg # of iterations =  2.0

     total cpu time spent up to now is        2.4 secs

     total energy              =    -485.67825638 Ry
     estimated scf accuracy    <       0.00000246 Ry

     iteration #  7     ecut=    40.00 Ry     beta= 0.70
     Davidson diagonalization with overlap
     ethr =  9.45E-09,  avg # of iterations =  3.0

     total cpu time spent up to now is        2.7 secs

     total energy              =    -485.67825734 Ry
     estimated scf accuracy    <       0.00000153 Ry

     iteration #  8     ecut=    40.00 Ry     beta= 0.70
     Davidson diagonalization with overlap
     ethr =  5.90E-09,  avg # of iterations =  2.0

     total cpu time spent up to now is        2.9 secs

     End of self-consistent calculation

          k = 0.0000 0.0000 0.0000 (  1139 PWs)   bands (ev):

  -118.2391 -72.4106 -72.4106 -72.4106  -6.0640   0.3552   0.3552   0.3552
     0.8072   0.8072   7.0356   7.0356   7.0356

          k = 0.5000-0.5000 0.5000 (  1158 PWs)   bands (ev):

  -118.2391 -72.4106 -72.4106 -72.4106  -5.0998   0.4627   0.4627   0.8376
     0.8376   1.0246   1.6350   6.1465   6.1465

          k = 0.0000-1.0000 0.0000 (  1138 PWs)   bands (ev):

  -118.2391 -72.4106 -72.4106 -72.4106  -4.7739   0.3612   0.6774   0.6774
     0.8799   1.0439   2.2845   4.7677   4.7677

     highest occupied level (ev):     7.0356

!    total energy              =    -485.67825763 Ry
     estimated scf accuracy    <       0.00000004 Ry

     The total energy is the sum of the following terms:
     one-electron contribution =    -455.04088275 Ry
     hartree contribution      =     234.51858058 Ry
     xc contribution           =     -50.77090183 Ry
     ewald contribution        =    -214.38505363 Ry

     convergence has been achieved in   8 iterations

     Writing output data file ./zns.save/

     init_run     :      0.64s CPU      0.65s WALL (       1 calls)
     electrons    :      1.95s CPU      2.14s WALL (       1 calls)

     Called by init_run:
     wfcinit      :      0.03s CPU      0.03s WALL (       1 calls)
     potinit      :      0.05s CPU      0.05s WALL (       1 calls)
     hinit0       :      0.49s CPU      0.49s WALL (       1 calls)

     Called by electrons:
     c_bands      :      0.55s CPU      0.55s WALL (       9 calls)
     sum_band     :      0.67s CPU      0.78s WALL (       9 calls)
     v_of_rho     :      0.24s CPU      0.25s WALL (       9 calls)
     newd         :      0.55s CPU      0.63s WALL (       9 calls)
     mix_rho      :      0.01s CPU      0.01s WALL (       9 calls)

     Called by c_bands:
     init_us_2    :      0.02s CPU      0.02s WALL (      57 calls)
     cegterg      :      0.51s CPU      0.52s WALL (      27 calls)

     Called by *egterg:
     cdiaghg      :      0.01s CPU      0.01s WALL (      81 calls)
     h_psi        :      0.48s CPU      0.48s WALL (      87 calls)
     s_psi        :      0.01s CPU      0.01s WALL (      87 calls)
     g_psi        :      0.00s CPU      0.00s WALL (      57 calls)

     Called by h_psi:
     h_psi:calbec :      0.02s CPU      0.02s WALL (      87 calls)
     vloc_psi     :      0.45s CPU      0.45s WALL (      87 calls)
     add_vuspsi   :      0.01s CPU      0.01s WALL (      87 calls)

     General routines
     calbec       :      0.02s CPU      0.02s WALL (     114 calls)
     fft          :      0.06s CPU      0.06s WALL (     116 calls)
     ffts         :      0.01s CPU      0.01s WALL (      18 calls)
     fftw         :      0.49s CPU      0.50s WALL (    2267 calls)
     interpolate  :      0.01s CPU      0.01s WALL (       9 calls)

     Parallel routines

     PWSCF        :      2.73s CPU      2.93s WALL


   This run was terminated on:  19:51: 2  13Jul2021            

=------------------------------------------------------------------------------=
   JOB DONE.
=------------------------------------------------------------------------------=
