
     Program PWSCF v.6.7MaX starts on 13Jul2021 at 19:51: 6 

     This program is part of the open-source Quantum ESPRESSO suite
     for quantum simulation of materials; please cite
         "P. Giannozzi et al., J. Phys.:Condens. Matter 21 395502 (2009);
         "P. Giannozzi et al., J. Phys.:Condens. Matter 29 465901 (2017);
          URL http://www.quantum-espresso.org", 
     in publications or presentations arising from this work. More details at
     http://www.quantum-espresso.org/quote

     Parallel version (MPI & OpenMP), running on       1 processor cores
     Number of MPI processes:                 1
     Threads/MPI process:                     1

     MPI processes distributed on     1 nodes
     Reading input from zns_sphalerite_exp_k3_888.in
Warning: card &CELL ignored
Warning: card / ignored

     Current dimensions of program PWSCF are:
     Max number of different atomic species (ntypx) = 10
     Max number of k-points (npk) =  40000
     Max angular momentum in pseudopotentials (lmaxx) =  3

     Subspace diagonalization in iterative solution of the eigenvalue problem:
     a serial algorithm will be used


     G-vector sticks info
     --------------------
     sticks:   dense  smooth     PW     G-vecs:    dense   smooth      PW
     Sum         721     583    187                12675     9185    1639



     bravais-lattice index     =            2
     lattice parameter (alat)  =      10.2221  a.u.
     unit-cell volume          =     267.0299 (a.u.)^3
     number of atoms/cell      =            2
     number of atomic types    =            2
     number of electrons       =        26.00
     number of Kohn-Sham states=           13
     kinetic-energy cutoff     =      40.0000  Ry
     charge density cutoff     =     200.0000  Ry
     scf convergence threshold =      1.0E-06
     mixing beta               =       0.7000
     number of iterations used =            8  plain     mixing
     Exchange-correlation=  SLA  PW   PBX  PBC
                           (   1   4   3   4   0   0   0)

     celldm(1)=  10.222096  celldm(2)=   0.000000  celldm(3)=   0.000000
     celldm(4)=   0.000000  celldm(5)=   0.000000  celldm(6)=   0.000000

     crystal axes: (cart. coord. in units of alat)
               a(1) = (  -0.500000   0.000000   0.500000 )  
               a(2) = (   0.000000   0.500000   0.500000 )  
               a(3) = (  -0.500000   0.500000   0.000000 )  

     reciprocal axes: (cart. coord. in units 2 pi/alat)
               b(1) = ( -1.000000 -1.000000  1.000000 )  
               b(2) = (  1.000000  1.000000  1.000000 )  
               b(3) = ( -1.000000  1.000000 -1.000000 )  


     PseudoPot. # 1 for Zn read from file:
     /home/antti/espresso/pseudo/zn_pbe_v1.uspp.F.UPF
     MD5 check sum: df62231357ef9e81f77b2b3087fa5675
     Pseudo is Ultrasoft, Zval = 20.0
     Generated by new atomic code, or converted to UPF format
     Using radial grid of  943 points,  6 beta functions with: 
                l(1) =   0
                l(2) =   0
                l(3) =   1
                l(4) =   1
                l(5) =   2
                l(6) =   2
     Q(r) pseudized with  8 coefficients,  rinner =    1.100   1.100   1.100
                                                       1.100   1.100

     PseudoPot. # 2 for S  read from file:
     /home/antti/espresso/pseudo/s_pbe_v1.4.uspp.F.UPF
     MD5 check sum: 88d86576ff6df21479756cfb9bdac1df
     Pseudo is Ultrasoft + core correction, Zval =  6.0
     Generated by new atomic code, or converted to UPF format
     Using radial grid of  907 points,  6 beta functions with: 
                l(1) =   0
                l(2) =   0
                l(3) =   1
                l(4) =   1
                l(5) =   2
                l(6) =   2
     Q(r) pseudized with  8 coefficients,  rinner =    1.300   1.300   1.300
                                                       1.300   1.300

     atomic species   valence    mass     pseudopotential
        Zn            20.00    65.38000     Zn( 1.00)
        S              6.00    32.06500     S ( 1.00)

     24 Sym. Ops. (no inversion) found



   Cartesian axes

     site n.     atom                  positions (alat units)
         1           Zn  tau(   1) = (   0.0000000   0.0000000   0.0000000  )
         2           S   tau(   2) = (  -0.7500000   0.7500000   0.7500000  )

     number of k points=    29
                       cart. coord. in units 2pi/alat
        k(    1) = (   0.0000000   0.0000000   0.0000000), wk =   0.0039062
        k(    2) = (  -0.1250000   0.1250000  -0.1250000), wk =   0.0312500
        k(    3) = (  -0.2500000   0.2500000  -0.2500000), wk =   0.0312500
        k(    4) = (  -0.3750000   0.3750000  -0.3750000), wk =   0.0312500
        k(    5) = (   0.5000000  -0.5000000   0.5000000), wk =   0.0156250
        k(    6) = (   0.0000000   0.2500000   0.0000000), wk =   0.0234375
        k(    7) = (  -0.1250000   0.3750000  -0.1250000), wk =   0.0937500
        k(    8) = (  -0.2500000   0.5000000  -0.2500000), wk =   0.0937500
        k(    9) = (   0.6250000  -0.3750000   0.6250000), wk =   0.0937500
        k(   10) = (   0.5000000  -0.2500000   0.5000000), wk =   0.0937500
        k(   11) = (   0.3750000  -0.1250000   0.3750000), wk =   0.0937500
        k(   12) = (   0.2500000   0.0000000   0.2500000), wk =   0.0468750
        k(   13) = (   0.0000000   0.5000000   0.0000000), wk =   0.0234375
        k(   14) = (  -0.1250000   0.6250000  -0.1250000), wk =   0.0937500
        k(   15) = (   0.7500000  -0.2500000   0.7500000), wk =   0.0937500
        k(   16) = (   0.6250000  -0.1250000   0.6250000), wk =   0.0937500
        k(   17) = (   0.5000000   0.0000000   0.5000000), wk =   0.0468750
        k(   18) = (   0.0000000   0.7500000   0.0000000), wk =   0.0234375
        k(   19) = (   0.8750000  -0.1250000   0.8750000), wk =   0.0937500
        k(   20) = (   0.7500000   0.0000000   0.7500000), wk =   0.0468750
        k(   21) = (   0.0000000  -1.0000000   0.0000000), wk =   0.0117188
        k(   22) = (  -0.2500000   0.5000000   0.0000000), wk =   0.0937500
        k(   23) = (   0.6250000  -0.3750000   0.8750000), wk =   0.1875000
        k(   24) = (   0.5000000  -0.2500000   0.7500000), wk =   0.0937500
        k(   25) = (   0.7500000  -0.2500000   1.0000000), wk =   0.0937500
        k(   26) = (   0.6250000  -0.1250000   0.8750000), wk =   0.1875000
        k(   27) = (   0.5000000   0.0000000   0.7500000), wk =   0.0937500
        k(   28) = (  -0.2500000  -1.0000000   0.0000000), wk =   0.0468750
        k(   29) = (  -0.5000000  -1.0000000   0.0000000), wk =   0.0234375

     Dense  grid:    12675 G-vectors     FFT dimensions: (  36,  36,  36)

     Smooth grid:     9185 G-vectors     FFT dimensions: (  30,  30,  30)

     Estimated max dynamical RAM per process >      54.69 MB

     Initial potential from superposition of free atoms

     starting charge   25.99982, renormalised to   26.00000
     Starting wfcs are   17 randomized atomic wfcs

     total cpu time spent up to now is        1.1 secs

     Self-consistent Calculation

     iteration #  1     ecut=    40.00 Ry     beta= 0.70
     Davidson diagonalization with overlap
     ethr =  1.00E-02,  avg # of iterations =  1.1

     Threshold (ethr) on eigenvalues was too large:
     Diagonalizing with lowered threshold

     Davidson diagonalization with overlap
     ethr =  4.04E-04,  avg # of iterations =  2.0

     total cpu time spent up to now is        2.6 secs

     total energy              =    -485.72554530 Ry
     estimated scf accuracy    <       0.10611164 Ry

     iteration #  2     ecut=    40.00 Ry     beta= 0.70
     Davidson diagonalization with overlap
     ethr =  4.08E-04,  avg # of iterations =  2.6

     total cpu time spent up to now is        3.6 secs

     total energy              =    -485.75284443 Ry
     estimated scf accuracy    <       0.08048659 Ry

     iteration #  3     ecut=    40.00 Ry     beta= 0.70
     Davidson diagonalization with overlap
     ethr =  3.10E-04,  avg # of iterations =  2.0

     total cpu time spent up to now is        4.5 secs

     total energy              =    -485.76957838 Ry
     estimated scf accuracy    <       0.00266772 Ry

     iteration #  4     ecut=    40.00 Ry     beta= 0.70
     Davidson diagonalization with overlap
     ethr =  1.03E-05,  avg # of iterations =  2.9

     total cpu time spent up to now is        5.5 secs

     total energy              =    -485.77031281 Ry
     estimated scf accuracy    <       0.00018105 Ry

     iteration #  5     ecut=    40.00 Ry     beta= 0.70
     Davidson diagonalization with overlap
     ethr =  6.96E-07,  avg # of iterations =  2.0

     total cpu time spent up to now is        6.4 secs

     total energy              =    -485.77032462 Ry
     estimated scf accuracy    <       0.00001277 Ry

     iteration #  6     ecut=    40.00 Ry     beta= 0.70
     Davidson diagonalization with overlap
     ethr =  4.91E-08,  avg # of iterations =  2.7

     total cpu time spent up to now is        7.3 secs

     total energy              =    -485.77032686 Ry
     estimated scf accuracy    <       0.00000128 Ry

     iteration #  7     ecut=    40.00 Ry     beta= 0.70
     Davidson diagonalization with overlap
     ethr =  4.93E-09,  avg # of iterations =  3.8

     total cpu time spent up to now is        8.4 secs

     End of self-consistent calculation

          k = 0.0000 0.0000 0.0000 (  1139 PWs)   bands (ev):

  -118.1661 -72.3354 -72.3354 -72.3354  -6.4159   0.3827   0.3827   0.3827
     0.8796   0.8796   6.7094   6.7094   6.7094

          k =-0.1250 0.1250-0.1250 (  1149 PWs)   bands (ev):

  -118.1661 -72.3354 -72.3354 -72.3354  -6.2994   0.3841   0.4036   0.4036
     0.8780   0.8780   5.5965   6.5625   6.5625

          k =-0.2500 0.2500-0.2500 (  1146 PWs)   bands (ev):

  -118.1661 -72.3355 -72.3354 -72.3354  -5.9952   0.4317   0.4495   0.4495
     0.8812   0.8812   3.8833   6.2423   6.2423

          k =-0.3750 0.3750-0.3750 (  1143 PWs)   bands (ev):

  -118.1661 -72.3355 -72.3354 -72.3354  -5.6498   0.4859   0.4859   0.6490
     0.8978   0.8978   2.3638   5.9566   5.9566

          k = 0.5000-0.5000 0.5000 (  1158 PWs)   bands (ev):

  -118.1661 -72.3355 -72.3354 -72.3354  -5.4911   0.4974   0.4974   0.9096
     0.9096   1.0801   1.4341   5.8455   5.8455

          k = 0.0000 0.2500 0.0000 (  1155 PWs)   bands (ev):

  -118.1661 -72.3354 -72.3354 -72.3354  -6.2605   0.3633   0.4215   0.4215
     0.8633   0.8906   5.6422   6.3026   6.3026

          k =-0.1250 0.3750-0.1250 (  1134 PWs)   bands (ev):

  -118.1661 -72.3355 -72.3354 -72.3354  -6.0181   0.3728   0.4701   0.4711
     0.8556   0.9007   4.3582   5.9253   5.9996

          k =-0.2500 0.5000-0.2500 (  1141 PWs)   bands (ev):

  -118.1661 -72.3355 -72.3354 -72.3354  -5.6813   0.4540   0.5134   0.5722
     0.8812   0.9124   2.8753   5.5809   5.6548

          k = 0.6250-0.3750 0.6250 (  1135 PWs)   bands (ev):

  -118.1661 -72.3355 -72.3354 -72.3354  -5.4512   0.4952   0.5288   0.8252
     0.9126   1.0389   1.7363   5.2282   5.6172

          k = 0.5000-0.2500 0.5000 (  1140 PWs)   bands (ev):

  -118.1661 -72.3355 -72.3354 -72.3354  -5.5044   0.4999   0.5169   0.7758
     0.8885   0.9492   2.0529   5.1053   5.8269

          k = 0.3750-0.1250 0.3750 (  1140 PWs)   bands (ev):

  -118.1661 -72.3355 -72.3354 -72.3354  -5.7967   0.4707   0.4789   0.5038
     0.8644   0.9097   3.3443   5.2943   6.1877

          k = 0.2500 0.0000 0.2500 (  1151 PWs)   bands (ev):

  -118.1661 -72.3354 -72.3354 -72.3354  -6.1196   0.3910   0.4294   0.4466
     0.8642   0.8913   4.7249   5.8585   6.5073

          k = 0.0000 0.5000 0.0000 (  1118 PWs)   bands (ev):

  -118.1661 -72.3355 -72.3354 -72.3354  -5.8544   0.3353   0.5284   0.5284
     0.8403   0.9170   4.1446   5.4787   5.4787

          k =-0.1250 0.6250-0.1250 (  1131 PWs)   bands (ev):

  -118.1661 -72.3355 -72.3354 -72.3354  -5.5789   0.3770   0.5856   0.5988
     0.8767   0.9287   3.2057   4.9534   5.1614

          k = 0.7500-0.2500 0.7500 (  1141 PWs)   bands (ev):

  -118.1661 -72.3355 -72.3354 -72.3354  -5.3474   0.4668   0.6081   0.7212
     0.9228   1.0428   2.2447   4.3224   5.1205

          k = 0.6250-0.1250 0.6250 (  1139 PWs)   bands (ev):

  -118.1661 -72.3355 -72.3354 -72.3354  -5.3208   0.4997   0.5906   0.8273
     0.8918   1.1011   2.0331   3.9577   5.3749

          k = 0.5000 0.0000 0.5000 (  1135 PWs)   bands (ev):

  -118.1661 -72.3355 -72.3354 -72.3354  -5.5175   0.5060   0.5390   0.6634
     0.8648   0.9402   2.7651   4.2099   5.8086

          k = 0.0000 0.7500 0.0000 (  1142 PWs)   bands (ev):

  -118.1661 -72.3355 -72.3354 -72.3354  -5.3924   0.3447   0.6597   0.6597
     0.9148   0.9435   2.8381   4.7725   4.7725

          k = 0.8750-0.1250 0.8750 (  1141 PWs)   bands (ev):

  -118.1661 -72.3355 -72.3354 -72.3354  -5.2318   0.3966   0.6905   0.7102
     0.9416   1.0709   2.3202   4.2254   4.6735

          k = 0.7500 0.0000 0.7500 (  1136 PWs)   bands (ev):

  -118.1661 -72.3355 -72.3354 -72.3354  -5.2034   0.4669   0.6634   0.7755
     0.9145   1.2224   2.1006   3.6133   4.9103

          k = 0.0000-1.0000 0.0000 (  1138 PWs)   bands (ev):

  -118.1661 -72.3355 -72.3354 -72.3354  -5.1799   0.3588   0.7239   0.7239
     0.9544   1.0935   2.1607   4.4973   4.4973

          k =-0.2500 0.5000 0.0000 (  1137 PWs)   bands (ev):

  -118.1661 -72.3355 -72.3354 -72.3354  -5.7568   0.4068   0.5146   0.5416
     0.8574   0.9173   3.5770   5.0131   5.8119

          k = 0.6250-0.3750 0.8750 (  1143 PWs)   bands (ev):

  -118.1661 -72.3355 -72.3354 -72.3354  -5.4681   0.4941   0.5454   0.6881
     0.8972   0.9517   2.5311   4.4919   5.4451

          k = 0.5000-0.2500 0.7500 (  1128 PWs)   bands (ev):

  -118.1661 -72.3355 -72.3354 -72.3354  -5.3388   0.5102   0.5667   0.8260
     0.8919   1.1462   1.8423   4.3741   5.2555

          k = 0.7500-0.2500 1.0000 (  1142 PWs)   bands (ev):

  -118.1661 -72.3355 -72.3354 -72.3354  -5.3560   0.4300   0.6162   0.6906
     0.9259   0.9803   2.6386   4.3594   4.8065

          k = 0.6250-0.1250 0.8750 (  1141 PWs)   bands (ev):

  -118.1661 -72.3355 -72.3354 -72.3354  -5.2251   0.4946   0.6364   0.7822
     0.8949   1.1890   2.1487   3.8410   4.6497

          k = 0.5000 0.0000 0.7500 (  1143 PWs)   bands (ev):

  -118.1661 -72.3355 -72.3354 -72.3354  -5.2748   0.5170   0.5990   0.8157
     0.8746   1.1141   2.2422   3.7332   4.9671

          k =-0.2500-1.0000 0.0000 (  1142 PWs)   bands (ev):

  -118.1661 -72.3355 -72.3354 -72.3354  -5.1769   0.4358   0.6892   0.7432
     0.9264   1.1854   2.1479   4.2246   4.2425

          k =-0.5000-1.0000 0.0000 (  1144 PWs)   bands (ev):

  -118.1661 -72.3355 -72.3354 -72.3354  -5.1739   0.5163   0.6632   0.8212
     0.8419   1.2753   2.1319   3.9732   4.0074

     highest occupied level (ev):     6.7094

!    total energy              =    -485.77032719 Ry
     estimated scf accuracy    <       0.00000078 Ry

     The total energy is the sum of the following terms:
     one-electron contribution =    -455.12228322 Ry
     hartree contribution      =     234.43781568 Ry
     xc contribution           =     -50.70080601 Ry
     ewald contribution        =    -214.38505363 Ry

     convergence has been achieved in   7 iterations

     Writing output data file ./zns.save/

     init_run     :      0.88s CPU      0.93s WALL (       1 calls)
     electrons    :      7.14s CPU      7.35s WALL (       1 calls)

     Called by init_run:
     wfcinit      :      0.30s CPU      0.32s WALL (       1 calls)
     potinit      :      0.04s CPU      0.05s WALL (       1 calls)
     hinit0       :      0.48s CPU      0.48s WALL (       1 calls)

     Called by electrons:
     c_bands      :      5.10s CPU      5.16s WALL (       8 calls)
     sum_band     :      1.42s CPU      1.50s WALL (       8 calls)
     v_of_rho     :      0.19s CPU      0.20s WALL (       8 calls)
     newd         :      0.48s CPU      0.56s WALL (       8 calls)
     mix_rho      :      0.01s CPU      0.01s WALL (       8 calls)

     Called by c_bands:
     init_us_2    :      0.14s CPU      0.14s WALL (     493 calls)
     cegterg      :      4.81s CPU      4.86s WALL (     232 calls)

     Called by *egterg:
     cdiaghg      :      0.11s CPU      0.11s WALL (     755 calls)
     h_psi        :      4.50s CPU      4.57s WALL (     813 calls)
     s_psi        :      0.07s CPU      0.07s WALL (     813 calls)
     g_psi        :      0.02s CPU      0.02s WALL (     552 calls)

     Called by h_psi:
     h_psi:calbec :      0.16s CPU      0.17s WALL (     813 calls)
     vloc_psi     :      4.25s CPU      4.31s WALL (     813 calls)
     add_vuspsi   :      0.07s CPU      0.07s WALL (     813 calls)

     General routines
     calbec       :      0.21s CPU      0.22s WALL (    1045 calls)
     fft          :      0.06s CPU      0.06s WALL (     103 calls)
     ffts         :      0.01s CPU      0.01s WALL (      16 calls)
     fftw         :      4.67s CPU      4.75s WALL (   19908 calls)
     interpolate  :      0.01s CPU      0.01s WALL (       8 calls)

     Parallel routines

     PWSCF        :      8.18s CPU      8.44s WALL


   This run was terminated on:  19:51:15  13Jul2021            

=------------------------------------------------------------------------------=
   JOB DONE.
=------------------------------------------------------------------------------=
