
     Program PWSCF v.6.7MaX starts on 10Jul2021 at 21:59:13 

     This program is part of the open-source Quantum ESPRESSO suite
     for quantum simulation of materials; please cite
         "P. Giannozzi et al., J. Phys.:Condens. Matter 21 395502 (2009);
         "P. Giannozzi et al., J. Phys.:Condens. Matter 29 465901 (2017);
          URL http://www.quantum-espresso.org", 
     in publications or presentations arising from this work. More details at
     http://www.quantum-espresso.org/quote

     Parallel version (MPI & OpenMP), running on       1 processor cores
     Number of MPI processes:                 1
     Threads/MPI process:                     1

     MPI processes distributed on     1 nodes
     Reading input from zns_sphalerite_opt.in

     Current dimensions of program PWSCF are:
     Max number of different atomic species (ntypx) = 10
     Max number of k-points (npk) =  40000
     Max angular momentum in pseudopotentials (lmaxx) =  3

     Subspace diagonalization in iterative solution of the eigenvalue problem:
     a serial algorithm will be used


     G-vector sticks info
     --------------------
     sticks:   dense  smooth     PW     G-vecs:    dense   smooth      PW
     Sum         721     583    187                12675     9185    1639



     bravais-lattice index     =            2
     lattice parameter (alat)  =      10.2221  a.u.
     unit-cell volume          =     267.0299 (a.u.)^3
     number of atoms/cell      =            2
     number of atomic types    =            2
     number of electrons       =        26.00
     number of Kohn-Sham states=           13
     kinetic-energy cutoff     =      40.0000  Ry
     charge density cutoff     =     200.0000  Ry
     scf convergence threshold =      1.0E-06
     mixing beta               =       0.7000
     number of iterations used =            8  plain     mixing
     energy convergence thresh.=      1.0E-04
     force convergence thresh. =      1.0E-03
     press convergence thresh. =      5.0E-01
     Exchange-correlation=  SLA  PW   PBX  PBC
                           (   1   4   3   4   0   0   0)
     nstep                     =           50


     celldm(1)=  10.222096  celldm(2)=   0.000000  celldm(3)=   0.000000
     celldm(4)=   0.000000  celldm(5)=   0.000000  celldm(6)=   0.000000

     crystal axes: (cart. coord. in units of alat)
               a(1) = (  -0.500000   0.000000   0.500000 )  
               a(2) = (   0.000000   0.500000   0.500000 )  
               a(3) = (  -0.500000   0.500000   0.000000 )  

     reciprocal axes: (cart. coord. in units 2 pi/alat)
               b(1) = ( -1.000000 -1.000000  1.000000 )  
               b(2) = (  1.000000  1.000000  1.000000 )  
               b(3) = ( -1.000000  1.000000 -1.000000 )  


     PseudoPot. # 1 for Zn read from file:
     /home/antti/espresso/pseudo/zn_pbe_v1.uspp.F.UPF
     MD5 check sum: df62231357ef9e81f77b2b3087fa5675
     Pseudo is Ultrasoft, Zval = 20.0
     Generated by new atomic code, or converted to UPF format
     Using radial grid of  943 points,  6 beta functions with: 
                l(1) =   0
                l(2) =   0
                l(3) =   1
                l(4) =   1
                l(5) =   2
                l(6) =   2
     Q(r) pseudized with  8 coefficients,  rinner =    1.100   1.100   1.100
                                                       1.100   1.100

     PseudoPot. # 2 for S  read from file:
     /home/antti/espresso/pseudo/s_pbe_v1.4.uspp.F.UPF
     MD5 check sum: 88d86576ff6df21479756cfb9bdac1df
     Pseudo is Ultrasoft + core correction, Zval =  6.0
     Generated by new atomic code, or converted to UPF format
     Using radial grid of  907 points,  6 beta functions with: 
                l(1) =   0
                l(2) =   0
                l(3) =   1
                l(4) =   1
                l(5) =   2
                l(6) =   2
     Q(r) pseudized with  8 coefficients,  rinner =    1.300   1.300   1.300
                                                       1.300   1.300

     atomic species   valence    mass     pseudopotential
        Zn            20.00    65.38000     Zn( 1.00)
        S              6.00    32.06500     S ( 1.00)

     24 Sym. Ops. (no inversion) found



   Cartesian axes

     site n.     atom                  positions (alat units)
         1           Zn  tau(   1) = (   0.0000000   0.0000000   0.0000000  )
         2           S   tau(   2) = (  -0.7500000   0.7500000   0.7500000  )

     number of k points=    29
                       cart. coord. in units 2pi/alat
        k(    1) = (   0.0000000   0.0000000   0.0000000), wk =   0.0039062
        k(    2) = (  -0.1250000   0.1250000  -0.1250000), wk =   0.0312500
        k(    3) = (  -0.2500000   0.2500000  -0.2500000), wk =   0.0312500
        k(    4) = (  -0.3750000   0.3750000  -0.3750000), wk =   0.0312500
        k(    5) = (   0.5000000  -0.5000000   0.5000000), wk =   0.0156250
        k(    6) = (   0.0000000   0.2500000   0.0000000), wk =   0.0234375
        k(    7) = (  -0.1250000   0.3750000  -0.1250000), wk =   0.0937500
        k(    8) = (  -0.2500000   0.5000000  -0.2500000), wk =   0.0937500
        k(    9) = (   0.6250000  -0.3750000   0.6250000), wk =   0.0937500
        k(   10) = (   0.5000000  -0.2500000   0.5000000), wk =   0.0937500
        k(   11) = (   0.3750000  -0.1250000   0.3750000), wk =   0.0937500
        k(   12) = (   0.2500000   0.0000000   0.2500000), wk =   0.0468750
        k(   13) = (   0.0000000   0.5000000   0.0000000), wk =   0.0234375
        k(   14) = (  -0.1250000   0.6250000  -0.1250000), wk =   0.0937500
        k(   15) = (   0.7500000  -0.2500000   0.7500000), wk =   0.0937500
        k(   16) = (   0.6250000  -0.1250000   0.6250000), wk =   0.0937500
        k(   17) = (   0.5000000   0.0000000   0.5000000), wk =   0.0468750
        k(   18) = (   0.0000000   0.7500000   0.0000000), wk =   0.0234375
        k(   19) = (   0.8750000  -0.1250000   0.8750000), wk =   0.0937500
        k(   20) = (   0.7500000   0.0000000   0.7500000), wk =   0.0468750
        k(   21) = (   0.0000000  -1.0000000   0.0000000), wk =   0.0117188
        k(   22) = (  -0.2500000   0.5000000   0.0000000), wk =   0.0937500
        k(   23) = (   0.6250000  -0.3750000   0.8750000), wk =   0.1875000
        k(   24) = (   0.5000000  -0.2500000   0.7500000), wk =   0.0937500
        k(   25) = (   0.7500000  -0.2500000   1.0000000), wk =   0.0937500
        k(   26) = (   0.6250000  -0.1250000   0.8750000), wk =   0.1875000
        k(   27) = (   0.5000000   0.0000000   0.7500000), wk =   0.0937500
        k(   28) = (  -0.2500000  -1.0000000   0.0000000), wk =   0.0468750
        k(   29) = (  -0.5000000  -1.0000000   0.0000000), wk =   0.0234375

     Dense  grid:    12675 G-vectors     FFT dimensions: (  36,  36,  36)

     Smooth grid:     9185 G-vectors     FFT dimensions: (  30,  30,  30)

     Estimated max dynamical RAM per process >      59.67 MB

     Initial potential from superposition of free atoms

     starting charge   25.99982, renormalised to   26.00000
     Starting wfcs are   17 randomized atomic wfcs

     total cpu time spent up to now is        3.0 secs

     Self-consistent Calculation

     iteration #  1     ecut=    40.00 Ry     beta= 0.70
     Davidson diagonalization with overlap
     ethr =  1.00E-02,  avg # of iterations =  1.1

     Threshold (ethr) on eigenvalues was too large:
     Diagonalizing with lowered threshold

     Davidson diagonalization with overlap
     ethr =  4.04E-04,  avg # of iterations =  2.0

     total cpu time spent up to now is        5.6 secs

     total energy              =    -485.72554530 Ry
     estimated scf accuracy    <       0.10611164 Ry

     iteration #  2     ecut=    40.00 Ry     beta= 0.70
     Davidson diagonalization with overlap
     ethr =  4.08E-04,  avg # of iterations =  2.6

     total cpu time spent up to now is        7.2 secs

     total energy              =    -485.75284443 Ry
     estimated scf accuracy    <       0.08048659 Ry

     iteration #  3     ecut=    40.00 Ry     beta= 0.70
     Davidson diagonalization with overlap
     ethr =  3.10E-04,  avg # of iterations =  2.0

     total cpu time spent up to now is        8.8 secs

     total energy              =    -485.76957838 Ry
     estimated scf accuracy    <       0.00266772 Ry

     iteration #  4     ecut=    40.00 Ry     beta= 0.70
     Davidson diagonalization with overlap
     ethr =  1.03E-05,  avg # of iterations =  2.9

     total cpu time spent up to now is       10.6 secs

     total energy              =    -485.77031281 Ry
     estimated scf accuracy    <       0.00018105 Ry

     iteration #  5     ecut=    40.00 Ry     beta= 0.70
     Davidson diagonalization with overlap
     ethr =  6.96E-07,  avg # of iterations =  2.0

     total cpu time spent up to now is       11.6 secs

     total energy              =    -485.77032462 Ry
     estimated scf accuracy    <       0.00001277 Ry

     iteration #  6     ecut=    40.00 Ry     beta= 0.70
     Davidson diagonalization with overlap
     ethr =  4.91E-08,  avg # of iterations =  2.7

     total cpu time spent up to now is       12.6 secs

     total energy              =    -485.77032686 Ry
     estimated scf accuracy    <       0.00000128 Ry

     iteration #  7     ecut=    40.00 Ry     beta= 0.70
     Davidson diagonalization with overlap
     ethr =  4.93E-09,  avg # of iterations =  3.8

     total cpu time spent up to now is       13.7 secs

     End of self-consistent calculation

          k = 0.0000 0.0000 0.0000 (  1139 PWs)   bands (ev):

  -118.1661 -72.3354 -72.3354 -72.3354  -6.4159   0.3827   0.3827   0.3827
     0.8796   0.8796   6.7094   6.7094   6.7094

          k =-0.1250 0.1250-0.1250 (  1149 PWs)   bands (ev):

  -118.1661 -72.3354 -72.3354 -72.3354  -6.2994   0.3841   0.4036   0.4036
     0.8780   0.8780   5.5965   6.5625   6.5625

          k =-0.2500 0.2500-0.2500 (  1146 PWs)   bands (ev):

  -118.1661 -72.3355 -72.3354 -72.3354  -5.9952   0.4317   0.4495   0.4495
     0.8812   0.8812   3.8833   6.2423   6.2423

          k =-0.3750 0.3750-0.3750 (  1143 PWs)   bands (ev):

  -118.1661 -72.3355 -72.3354 -72.3354  -5.6498   0.4859   0.4859   0.6490
     0.8978   0.8978   2.3638   5.9566   5.9566

          k = 0.5000-0.5000 0.5000 (  1158 PWs)   bands (ev):

  -118.1661 -72.3355 -72.3354 -72.3354  -5.4911   0.4974   0.4974   0.9096
     0.9096   1.0801   1.4341   5.8455   5.8455

          k = 0.0000 0.2500 0.0000 (  1155 PWs)   bands (ev):

  -118.1661 -72.3354 -72.3354 -72.3354  -6.2605   0.3633   0.4215   0.4215
     0.8633   0.8906   5.6422   6.3026   6.3026

          k =-0.1250 0.3750-0.1250 (  1134 PWs)   bands (ev):

  -118.1661 -72.3355 -72.3354 -72.3354  -6.0181   0.3728   0.4701   0.4711
     0.8556   0.9007   4.3582   5.9253   5.9996

          k =-0.2500 0.5000-0.2500 (  1141 PWs)   bands (ev):

  -118.1661 -72.3355 -72.3354 -72.3354  -5.6813   0.4540   0.5134   0.5722
     0.8812   0.9124   2.8753   5.5809   5.6548

          k = 0.6250-0.3750 0.6250 (  1135 PWs)   bands (ev):

  -118.1661 -72.3355 -72.3354 -72.3354  -5.4512   0.4952   0.5288   0.8252
     0.9126   1.0389   1.7363   5.2282   5.6172

          k = 0.5000-0.2500 0.5000 (  1140 PWs)   bands (ev):

  -118.1661 -72.3355 -72.3354 -72.3354  -5.5044   0.4999   0.5169   0.7758
     0.8885   0.9492   2.0529   5.1053   5.8269

          k = 0.3750-0.1250 0.3750 (  1140 PWs)   bands (ev):

  -118.1661 -72.3355 -72.3354 -72.3354  -5.7967   0.4707   0.4789   0.5038
     0.8644   0.9097   3.3443   5.2943   6.1877

          k = 0.2500 0.0000 0.2500 (  1151 PWs)   bands (ev):

  -118.1661 -72.3354 -72.3354 -72.3354  -6.1196   0.3910   0.4294   0.4466
     0.8642   0.8913   4.7249   5.8585   6.5073

          k = 0.0000 0.5000 0.0000 (  1118 PWs)   bands (ev):

  -118.1661 -72.3355 -72.3354 -72.3354  -5.8544   0.3353   0.5284   0.5284
     0.8403   0.9170   4.1446   5.4787   5.4787

          k =-0.1250 0.6250-0.1250 (  1131 PWs)   bands (ev):

  -118.1661 -72.3355 -72.3354 -72.3354  -5.5789   0.3770   0.5856   0.5988
     0.8767   0.9287   3.2057   4.9534   5.1614

          k = 0.7500-0.2500 0.7500 (  1141 PWs)   bands (ev):

  -118.1661 -72.3355 -72.3354 -72.3354  -5.3474   0.4668   0.6081   0.7212
     0.9228   1.0428   2.2447   4.3224   5.1205

          k = 0.6250-0.1250 0.6250 (  1139 PWs)   bands (ev):

  -118.1661 -72.3355 -72.3354 -72.3354  -5.3208   0.4997   0.5906   0.8273
     0.8918   1.1011   2.0331   3.9577   5.3749

          k = 0.5000 0.0000 0.5000 (  1135 PWs)   bands (ev):

  -118.1661 -72.3355 -72.3354 -72.3354  -5.5175   0.5060   0.5390   0.6634
     0.8648   0.9402   2.7651   4.2099   5.8086

          k = 0.0000 0.7500 0.0000 (  1142 PWs)   bands (ev):

  -118.1661 -72.3355 -72.3354 -72.3354  -5.3924   0.3447   0.6597   0.6597
     0.9148   0.9435   2.8381   4.7725   4.7725

          k = 0.8750-0.1250 0.8750 (  1141 PWs)   bands (ev):

  -118.1661 -72.3355 -72.3354 -72.3354  -5.2318   0.3966   0.6905   0.7102
     0.9416   1.0709   2.3202   4.2254   4.6735

          k = 0.7500 0.0000 0.7500 (  1136 PWs)   bands (ev):

  -118.1661 -72.3355 -72.3354 -72.3354  -5.2034   0.4669   0.6634   0.7755
     0.9145   1.2224   2.1006   3.6133   4.9103

          k = 0.0000-1.0000 0.0000 (  1138 PWs)   bands (ev):

  -118.1661 -72.3355 -72.3354 -72.3354  -5.1799   0.3588   0.7239   0.7239
     0.9544   1.0935   2.1607   4.4973   4.4973

          k =-0.2500 0.5000 0.0000 (  1137 PWs)   bands (ev):

  -118.1661 -72.3355 -72.3354 -72.3354  -5.7568   0.4068   0.5146   0.5416
     0.8574   0.9173   3.5770   5.0131   5.8119

          k = 0.6250-0.3750 0.8750 (  1143 PWs)   bands (ev):

  -118.1661 -72.3355 -72.3354 -72.3354  -5.4681   0.4941   0.5454   0.6881
     0.8972   0.9517   2.5311   4.4919   5.4451

          k = 0.5000-0.2500 0.7500 (  1128 PWs)   bands (ev):

  -118.1661 -72.3355 -72.3354 -72.3354  -5.3388   0.5102   0.5667   0.8260
     0.8919   1.1462   1.8423   4.3741   5.2555

          k = 0.7500-0.2500 1.0000 (  1142 PWs)   bands (ev):

  -118.1661 -72.3355 -72.3354 -72.3354  -5.3560   0.4300   0.6162   0.6906
     0.9259   0.9803   2.6386   4.3594   4.8065

          k = 0.6250-0.1250 0.8750 (  1141 PWs)   bands (ev):

  -118.1661 -72.3355 -72.3354 -72.3354  -5.2251   0.4946   0.6364   0.7822
     0.8949   1.1890   2.1487   3.8410   4.6497

          k = 0.5000 0.0000 0.7500 (  1143 PWs)   bands (ev):

  -118.1661 -72.3355 -72.3354 -72.3354  -5.2748   0.5170   0.5990   0.8157
     0.8746   1.1141   2.2422   3.7332   4.9671

          k =-0.2500-1.0000 0.0000 (  1142 PWs)   bands (ev):

  -118.1661 -72.3355 -72.3354 -72.3354  -5.1769   0.4358   0.6892   0.7432
     0.9264   1.1854   2.1479   4.2246   4.2425

          k =-0.5000-1.0000 0.0000 (  1144 PWs)   bands (ev):

  -118.1661 -72.3355 -72.3354 -72.3354  -5.1739   0.5163   0.6632   0.8212
     0.8419   1.2753   2.1319   3.9732   4.0074

     highest occupied level (ev):     6.7094

!    total energy              =    -485.77032719 Ry
     estimated scf accuracy    <       0.00000078 Ry

     The total energy is the sum of the following terms:
     one-electron contribution =    -455.12228322 Ry
     hartree contribution      =     234.43781568 Ry
     xc contribution           =     -50.70080601 Ry
     ewald contribution        =    -214.38505363 Ry

     convergence has been achieved in   7 iterations

     Forces acting on atoms (cartesian axes, Ry/au):

     atom    1 type  1   force =     0.00000000   -0.00000000    0.00000000
     atom    2 type  2   force =    -0.00000000    0.00000000   -0.00000000

     Total force =     0.000000     Total SCF correction =     0.000000


     Computing stress (Cartesian axis) and pressure

          total   stress  (Ry/bohr**3)                   (kbar)     P=       31.93
   0.00021709   0.00000000  -0.00000000           31.93        0.00       -0.00
   0.00000000   0.00021709  -0.00000000            0.00       31.93       -0.00
   0.00000000  -0.00000000   0.00021709            0.00       -0.00       31.93


     BFGS Geometry Optimization
     Energy error            =      0.0E+00
     Gradient error          =      2.5E-31
     Cell gradient error     =      2.2E-04


     number of scf cycles    =   1
     number of bfgs steps    =   0

     enthalpy new            =    -485.7703271864 Ry

     new trust radius        =       0.0177370304 bohr
     new conv_thr            =       0.0000010000 Ry

     new unit-cell volume =    271.40111 a.u.^3 (    40.21750 Ang^3 )
     density =      4.02340 g/cm^3

CELL_PARAMETERS (alat= 10.22209553)
  -0.502713570   0.000000000   0.502713570
  -0.000000000   0.502713570   0.502713570
  -0.502713570   0.502713570   0.000000000

ATOMIC_POSITIONS (crystal)
Zn            0.0000000000        0.0000000000       -0.0000000000
S             0.7500000000        0.7500000000        0.7500000000



     Writing output data file ./zns.save/
     NEW-OLD atomic charge density approx. for the potential
     extrapolated charge   26.41876, renormalised to   26.00000

     total cpu time spent up to now is       16.3 secs

     Self-consistent Calculation

     iteration #  1     ecut=    40.00 Ry     beta= 0.70
     Davidson diagonalization with overlap
     ethr =  1.00E-06,  avg # of iterations =  9.7

     total cpu time spent up to now is       18.6 secs

     total energy              =    -485.01662989 Ry
     estimated scf accuracy    <       0.64076168 Ry

     iteration #  2     ecut=    40.00 Ry     beta= 0.70
     Davidson diagonalization with overlap
     ethr =  2.46E-03,  avg # of iterations =  3.0

     total cpu time spent up to now is       19.9 secs

     total energy              =    -485.67105722 Ry
     estimated scf accuracy    <       2.54363300 Ry

     iteration #  3     ecut=    40.00 Ry     beta= 0.70
     Davidson diagonalization with overlap
     ethr =  2.46E-03,  avg # of iterations =  2.0

     total cpu time spent up to now is       20.9 secs

     total energy              =    -485.78019601 Ry
     estimated scf accuracy    <       0.39796615 Ry

     iteration #  4     ecut=    40.00 Ry     beta= 0.70
     Davidson diagonalization with overlap
     ethr =  1.53E-03,  avg # of iterations =  1.9

     total cpu time spent up to now is       21.7 secs

     total energy              =    -485.79516035 Ry
     estimated scf accuracy    <       0.12183942 Ry

     iteration #  5     ecut=    40.00 Ry     beta= 0.70
     Davidson diagonalization with overlap
     ethr =  4.69E-04,  avg # of iterations =  1.0

     total cpu time spent up to now is       22.5 secs

     total energy              =    -485.77854067 Ry
     estimated scf accuracy    <       0.09879390 Ry

     iteration #  6     ecut=    40.00 Ry     beta= 0.70
     Davidson diagonalization with overlap
     ethr =  3.80E-04,  avg # of iterations =  1.0

     total cpu time spent up to now is       23.3 secs

     total energy              =    -485.77898912 Ry
     estimated scf accuracy    <       0.04319867 Ry

     iteration #  7     ecut=    40.00 Ry     beta= 0.70
     Davidson diagonalization with overlap
     ethr =  1.66E-04,  avg # of iterations =  1.0

     total cpu time spent up to now is       24.1 secs

     total energy              =    -485.78075050 Ry
     estimated scf accuracy    <       0.03410167 Ry

     iteration #  8     ecut=    40.00 Ry     beta= 0.70
     Davidson diagonalization with overlap
     ethr =  1.31E-04,  avg # of iterations =  1.0

     total cpu time spent up to now is       24.9 secs

     total energy              =    -485.77070396 Ry
     estimated scf accuracy    <       0.03721483 Ry

     iteration #  9     ecut=    40.00 Ry     beta= 0.70
     Davidson diagonalization with overlap
     ethr =  1.31E-04,  avg # of iterations =  2.0

     total cpu time spent up to now is       25.8 secs

     total energy              =    -485.77366874 Ry
     estimated scf accuracy    <       0.00967089 Ry

     iteration # 10     ecut=    40.00 Ry     beta= 0.70
     Davidson diagonalization with overlap
     ethr =  3.72E-05,  avg # of iterations =  1.0

     total cpu time spent up to now is       26.5 secs

     total energy              =    -485.76767633 Ry
     estimated scf accuracy    <       0.01192397 Ry

     iteration # 11     ecut=    40.00 Ry     beta= 0.70
     Davidson diagonalization with overlap
     ethr =  3.72E-05,  avg # of iterations =  2.3

     total cpu time spent up to now is       27.5 secs

     total energy              =    -485.77058144 Ry
     estimated scf accuracy    <       0.00005060 Ry

     iteration # 12     ecut=    40.00 Ry     beta= 0.70
     Davidson diagonalization with overlap
     ethr =  1.95E-07,  avg # of iterations =  4.6

     total cpu time spent up to now is       28.7 secs

     total energy              =    -485.77059733 Ry
     estimated scf accuracy    <       0.00015438 Ry

     iteration # 13     ecut=    40.00 Ry     beta= 0.70
     Davidson diagonalization with overlap
     ethr =  1.95E-07,  avg # of iterations =  2.0

     total cpu time spent up to now is       29.6 secs

     total energy              =    -485.77061880 Ry
     estimated scf accuracy    <       0.00005905 Ry

     iteration # 14     ecut=    40.00 Ry     beta= 0.70
     Davidson diagonalization with overlap
     ethr =  1.95E-07,  avg # of iterations =  1.0

     total cpu time spent up to now is       30.4 secs

     total energy              =    -485.77061824 Ry
     estimated scf accuracy    <       0.00010768 Ry

     iteration # 15     ecut=    40.00 Ry     beta= 0.70
     Davidson diagonalization with overlap
     ethr =  1.95E-07,  avg # of iterations =  1.0

     total cpu time spent up to now is       31.2 secs

     total energy              =    -485.77062710 Ry
     estimated scf accuracy    <       0.00010218 Ry

     iteration # 16     ecut=    40.00 Ry     beta= 0.70
     Davidson diagonalization with overlap
     ethr =  1.95E-07,  avg # of iterations =  1.0

     total cpu time spent up to now is       32.0 secs

     total energy              =    -485.77061609 Ry
     estimated scf accuracy    <       0.00013606 Ry

     iteration # 17     ecut=    40.00 Ry     beta= 0.70
     Davidson diagonalization with overlap
     ethr =  1.95E-07,  avg # of iterations =  1.0

     total cpu time spent up to now is       32.8 secs

     total energy              =    -485.77067111 Ry
     estimated scf accuracy    <       0.00010301 Ry

     iteration # 18     ecut=    40.00 Ry     beta= 0.70
     Davidson diagonalization with overlap
     ethr =  1.95E-07,  avg # of iterations =  2.0

     total cpu time spent up to now is       33.7 secs

     total energy              =    -485.77059255 Ry
     estimated scf accuracy    <       0.00031319 Ry

     iteration # 19     ecut=    40.00 Ry     beta= 0.70
     Davidson diagonalization with overlap
     ethr =  1.95E-07,  avg # of iterations =  2.0

     total cpu time spent up to now is       34.6 secs

     total energy              =    -485.77055575 Ry
     estimated scf accuracy    <       0.00008767 Ry

     iteration # 20     ecut=    40.00 Ry     beta= 0.70
     Davidson diagonalization with overlap
     ethr =  1.95E-07,  avg # of iterations =  3.0

     total cpu time spent up to now is       35.7 secs

     total energy              =    -485.77058424 Ry
     estimated scf accuracy    <       0.00001698 Ry

     iteration # 21     ecut=    40.00 Ry     beta= 0.70
     Davidson diagonalization with overlap
     ethr =  6.53E-08,  avg # of iterations =  2.0

     total cpu time spent up to now is       36.6 secs

     End of self-consistent calculation

          k = 0.0000 0.0000 0.0000 (  1139 PWs)   bands (ev):

  -118.3413 -72.5106 -72.5106 -72.5106  -6.5279   0.2285   0.2285   0.2285
     0.7072   0.7072   6.4865   6.4865   6.4865

          k =-0.1243 0.1243-0.1243 (  1149 PWs)   bands (ev):

  -118.3413 -72.5107 -72.5106 -72.5106  -6.4147   0.2311   0.2487   0.2487
     0.7056   0.7056   5.3840   6.3439   6.3439

          k =-0.2487 0.2487-0.2487 (  1146 PWs)   bands (ev):

  -118.3412 -72.5107 -72.5107 -72.5107  -6.1197   0.2814   0.2931   0.2931
     0.7087   0.7087   3.6989   6.0325   6.0325

          k =-0.3730 0.3730-0.3730 (  1143 PWs)   bands (ev):

  -118.3412 -72.5107 -72.5107 -72.5107  -5.7858   0.3284   0.3284   0.4981
     0.7246   0.7246   2.2082   5.7541   5.7541

          k = 0.4973-0.4973 0.4973 (  1158 PWs)   bands (ev):

  -118.3412 -72.5107 -72.5107 -72.5107  -5.6328   0.3396   0.3396   0.7359
     0.7359   0.9020   1.3175   5.6459   5.6459

          k = 0.0000 0.2487 0.0000 (  1155 PWs)   bands (ev):

  -118.3413 -72.5107 -72.5107 -72.5107  -6.3770   0.2113   0.2662   0.2662
     0.6916   0.7177   5.4219   6.0918   6.0918

          k =-0.1243 0.3730-0.1243 (  1134 PWs)   bands (ev):

  -118.3412 -72.5107 -72.5107 -72.5107  -6.1418   0.2228   0.3132   0.3147
     0.6843   0.7273   4.1610   5.7245   5.7946

          k =-0.2487 0.4973-0.2487 (  1141 PWs)   bands (ev):

  -118.3412 -72.5107 -72.5107 -72.5107  -5.8160   0.3006   0.3550   0.4184
     0.7092   0.7386   2.7083   5.3848   5.4607

          k = 0.6216-0.3730 0.6216 (  1135 PWs)   bands (ev):

  -118.3412 -72.5107 -72.5107 -72.5107  -5.5941   0.3382   0.3698   0.6599
     0.7387   0.8652   1.6026   5.0400   5.4237

          k = 0.4973-0.2487 0.4973 (  1140 PWs)   bands (ev):

  -118.3412 -72.5107 -72.5107 -72.5107  -5.6453   0.3426   0.3583   0.6180
     0.7157   0.7766   1.9060   4.9208   5.6278

          k = 0.3730-0.1243 0.3730 (  1140 PWs)   bands (ev):

  -118.3412 -72.5107 -72.5107 -72.5107  -5.9275   0.3168   0.3214   0.3508
     0.6927   0.7361   3.1671   5.1077   5.9789

          k = 0.2487 0.0000 0.2487 (  1151 PWs)   bands (ev):

  -118.3413 -72.5107 -72.5107 -72.5107  -6.2403   0.2398   0.2736   0.2907
     0.6925   0.7183   4.5219   5.6604   6.2898

          k = 0.0000 0.4973 0.0000 (  1118 PWs)   bands (ev):

  -118.3412 -72.5107 -72.5107 -72.5107  -5.9831   0.1885   0.3695   0.3695
     0.6700   0.7430   3.9426   5.2895   5.2895

          k =-0.1243 0.6216-0.1243 (  1131 PWs)   bands (ev):

  -118.3412 -72.5107 -72.5107 -72.5107  -5.7168   0.2312   0.4247   0.4385
     0.7057   0.7541   3.0242   4.7753   4.9800

          k = 0.7460-0.2487 0.7460 (  1141 PWs)   bands (ev):

  -118.3412 -72.5107 -72.5107 -72.5107  -5.4936   0.3151   0.4463   0.5586
     0.7485   0.8677   2.0931   4.1555   4.9399

          k = 0.6216-0.1243 0.6216 (  1139 PWs)   bands (ev):

  -118.3412 -72.5107 -72.5107 -72.5107  -5.4680   0.3444   0.4292   0.6588
     0.7189   0.9259   1.8921   3.7983   5.1876

          k = 0.4973 0.0000 0.4973 (  1135 PWs)   bands (ev):

  -118.3412 -72.5107 -72.5107 -72.5107  -5.6577   0.3492   0.3794   0.5092
     0.6931   0.7666   2.5965   4.0490   5.6101

          k = 0.0000 0.7460 0.0000 (  1142 PWs)   bands (ev):

  -118.3412 -72.5107 -72.5107 -72.5107  -5.5367   0.2026   0.4959   0.4959
     0.7434   0.7683   2.6609   4.6007   4.6007

          k = 0.8703-0.1243 0.8703 (  1141 PWs)   bands (ev):

  -118.3412 -72.5107 -72.5107 -72.5107  -5.3820   0.2524   0.5255   0.5448
     0.7665   0.8939   2.1593   4.0669   4.5041

          k = 0.7460 0.0000 0.7460 (  1136 PWs)   bands (ev):

  -118.3412 -72.5107 -72.5107 -72.5107  -5.3547   0.3163   0.4993   0.6078
     0.7407   1.0371   1.9567   3.4672   4.7348

          k = 0.0000-0.9946 0.0000 (  1138 PWs)   bands (ev):

  -118.3412 -72.5107 -72.5107 -72.5107  -5.3320   0.2175   0.5575   0.5575
     0.7788   0.9148   2.0035   4.3324   4.3324

          k =-0.2487 0.4973 0.0000 (  1137 PWs)   bands (ev):

  -118.3412 -72.5107 -72.5107 -72.5107  -5.8888   0.2577   0.3566   0.3837
     0.6864   0.7433   3.3902   4.8354   5.6127

          k = 0.6216-0.3730 0.8703 (  1143 PWs)   bands (ev):

  -118.3412 -72.5107 -72.5107 -72.5107  -5.6100   0.3392   0.3868   0.5296
     0.7246   0.7785   2.3702   4.3221   5.2560

          k = 0.4973-0.2487 0.7460 (  1128 PWs)   bands (ev):

  -118.3412 -72.5107 -72.5107 -72.5107  -5.4854   0.3537   0.4069   0.6581
     0.7193   0.9653   1.7109   4.2038   5.0719

          k = 0.7460-0.2487 0.9946 (  1142 PWs)   bands (ev):

  -118.3412 -72.5107 -72.5107 -72.5107  -5.5017   0.2828   0.4544   0.5270
     0.7516   0.8069   2.4694   4.1969   4.6339

          k = 0.6216-0.1243 0.8703 (  1141 PWs)   bands (ev):

  -118.3412 -72.5107 -72.5107 -72.5107  -5.3756   0.3418   0.4736   0.6151
     0.7223   1.0065   2.0020   3.6884   4.4813

          k = 0.4973 0.0000 0.7460 (  1143 PWs)   bands (ev):

  -118.3412 -72.5107 -72.5107 -72.5107  -5.4235   0.3615   0.4381   0.6475
     0.7030   0.9380   2.0909   3.5827   4.7904

          k =-0.2487-0.9946 0.0000 (  1142 PWs)   bands (ev):

  -118.3412 -72.5107 -72.5107 -72.5107  -5.3291   0.2889   0.5238   0.5770
     0.7521   1.0021   1.9963   4.0699   4.0805

          k =-0.4973-0.9946 0.0000 (  1144 PWs)   bands (ev):

  -118.3412 -72.5107 -72.5107 -72.5107  -5.3263   0.3620   0.4986   0.6544
     0.6709   1.0868   1.9874   3.8280   3.8466

     highest occupied level (ev):     6.4865

!    total energy              =    -485.77058700 Ry
     estimated scf accuracy    <       0.00000086 Ry

     The total energy is the sum of the following terms:
     one-electron contribution =    -457.10274154 Ry
     hartree contribution      =     235.24673623 Ry
     xc contribution           =     -50.68674535 Ry
     ewald contribution        =    -213.22783635 Ry

     convergence has been achieved in  21 iterations

     Forces acting on atoms (cartesian axes, Ry/au):

     atom    1 type  1   force =     0.00000000    0.00000000    0.00000000
     atom    2 type  2   force =    -0.00000000   -0.00000000   -0.00000000

     Total force =     0.000000     Total SCF correction =     0.000000


     Computing stress (Cartesian axis) and pressure

          total   stress  (Ry/bohr**3)                   (kbar)     P=        6.11
   0.00004152   0.00000000   0.00000000            6.11        0.00        0.00
   0.00000000   0.00004152  -0.00000000            0.00        6.11       -0.00
   0.00000000  -0.00000000   0.00004152            0.00       -0.00        6.11

     Energy error            =      2.6E-04
     Gradient error          =      3.3E-32
     Cell gradient error     =      4.2E-05


     number of scf cycles    =   2
     number of bfgs steps    =   1

     enthalpy old            =    -485.7703271864 Ry
     enthalpy new            =    -485.7705870002 Ry

     CASE: enthalpy_new < enthalpy_old

     new trust radius        =       0.0042630181 bohr
     new conv_thr            =       0.0000000100 Ry

     new unit-cell volume =    272.45593 a.u.^3 (    40.37380 Ang^3 )
     density =      4.00783 g/cm^3

CELL_PARAMETERS (alat= 10.22209553)
  -0.503364002   0.000000000   0.503364002
  -0.000000000   0.503364002   0.503364002
  -0.503364002   0.503364002   0.000000000

ATOMIC_POSITIONS (crystal)
Zn            0.0000000000        0.0000000000       -0.0000000000
S             0.7500000000        0.7500000000        0.7500000000



     Writing output data file ./zns.save/
     NEW-OLD atomic charge density approx. for the potential
     extrapolated charge   26.10066, renormalised to   26.00000

     total cpu time spent up to now is       39.1 secs

     Self-consistent Calculation

     iteration #  1     ecut=    40.00 Ry     beta= 0.70
     Davidson diagonalization with overlap
     ethr =  1.00E-06,  avg # of iterations =  6.0

     total cpu time spent up to now is       40.7 secs

     total energy              =    -485.74163927 Ry
     estimated scf accuracy    <       0.02381230 Ry

     iteration #  2     ecut=    40.00 Ry     beta= 0.70
     Davidson diagonalization with overlap
     ethr =  9.16E-05,  avg # of iterations =  3.6

     total cpu time spent up to now is       41.8 secs

     total energy              =    -485.76209171 Ry
     estimated scf accuracy    <       0.12788977 Ry

     iteration #  3     ecut=    40.00 Ry     beta= 0.70
     Davidson diagonalization with overlap
     ethr =  9.16E-05,  avg # of iterations =  2.7

     total cpu time spent up to now is       42.8 secs

     total energy              =    -485.77086169 Ry
     estimated scf accuracy    <       0.01453550 Ry

     iteration #  4     ecut=    40.00 Ry     beta= 0.70
     Davidson diagonalization with overlap
     ethr =  5.59E-05,  avg # of iterations =  2.0

     total cpu time spent up to now is       43.6 secs

     total energy              =    -485.77068914 Ry
     estimated scf accuracy    <       0.00457185 Ry

     iteration #  5     ecut=    40.00 Ry     beta= 0.70
     Davidson diagonalization with overlap
     ethr =  1.76E-05,  avg # of iterations =  2.0

     total cpu time spent up to now is       44.4 secs

     total energy              =    -485.77081816 Ry
     estimated scf accuracy    <       0.00156137 Ry

     iteration #  6     ecut=    40.00 Ry     beta= 0.70
     Davidson diagonalization with overlap
     ethr =  6.01E-06,  avg # of iterations =  1.0

     total cpu time spent up to now is       45.2 secs

     total energy              =    -485.77081450 Ry
     estimated scf accuracy    <       0.00108654 Ry

     iteration #  7     ecut=    40.00 Ry     beta= 0.70
     Davidson diagonalization with overlap
     ethr =  4.18E-06,  avg # of iterations =  1.0

     total cpu time spent up to now is       45.9 secs

     total energy              =    -485.77078501 Ry
     estimated scf accuracy    <       0.00090063 Ry

     iteration #  8     ecut=    40.00 Ry     beta= 0.70
     Davidson diagonalization with overlap
     ethr =  3.46E-06,  avg # of iterations =  1.0

     total cpu time spent up to now is       46.7 secs

     total energy              =    -485.77080221 Ry
     estimated scf accuracy    <       0.00073535 Ry

     iteration #  9     ecut=    40.00 Ry     beta= 0.70
     Davidson diagonalization with overlap
     ethr =  2.83E-06,  avg # of iterations =  1.0

     total cpu time spent up to now is       47.5 secs

     total energy              =    -485.77070598 Ry
     estimated scf accuracy    <       0.00078250 Ry

     iteration # 10     ecut=    40.00 Ry     beta= 0.70
     Davidson diagonalization with overlap
     ethr =  2.83E-06,  avg # of iterations =  1.0

     total cpu time spent up to now is       48.3 secs

     total energy              =    -485.77049909 Ry
     estimated scf accuracy    <       0.00046765 Ry

     iteration # 11     ecut=    40.00 Ry     beta= 0.70
     Davidson diagonalization with overlap
     ethr =  1.80E-06,  avg # of iterations =  2.1

     total cpu time spent up to now is       49.2 secs

     total energy              =    -485.77059386 Ry
     estimated scf accuracy    <       0.00000183 Ry

     iteration # 12     ecut=    40.00 Ry     beta= 0.70
     Davidson diagonalization with overlap
     ethr =  7.04E-09,  avg # of iterations =  5.0

     total cpu time spent up to now is       50.5 secs

     total energy              =    -485.77059808 Ry
     estimated scf accuracy    <       0.00000520 Ry

     iteration # 13     ecut=    40.00 Ry     beta= 0.70
     Davidson diagonalization with overlap
     ethr =  7.04E-09,  avg # of iterations =  1.0

     total cpu time spent up to now is       51.3 secs

     total energy              =    -485.77059761 Ry
     estimated scf accuracy    <       0.00000406 Ry

     iteration # 14     ecut=    40.00 Ry     beta= 0.70
     Davidson diagonalization with overlap
     ethr =  7.04E-09,  avg # of iterations =  1.0

     total cpu time spent up to now is       52.0 secs

     total energy              =    -485.77059673 Ry
     estimated scf accuracy    <       0.00000266 Ry

     iteration # 15     ecut=    40.00 Ry     beta= 0.70
     Davidson diagonalization with overlap
     ethr =  7.04E-09,  avg # of iterations =  2.0

     total cpu time spent up to now is       53.1 secs

     total energy              =    -485.77059722 Ry
     estimated scf accuracy    <       0.00000052 Ry

     iteration # 16     ecut=    40.00 Ry     beta= 0.70
     Davidson diagonalization with overlap
     ethr =  1.98E-09,  avg # of iterations =  2.0

     total cpu time spent up to now is       53.9 secs

     total energy              =    -485.77059723 Ry
     estimated scf accuracy    <       0.00000125 Ry

     iteration # 17     ecut=    40.00 Ry     beta= 0.70
     Davidson diagonalization with overlap
     ethr =  1.98E-09,  avg # of iterations =  1.0

     total cpu time spent up to now is       54.8 secs

     total energy              =    -485.77059670 Ry
     estimated scf accuracy    <       0.00000114 Ry

     iteration # 18     ecut=    40.00 Ry     beta= 0.70
     Davidson diagonalization with overlap
     ethr =  1.98E-09,  avg # of iterations =  2.0

     total cpu time spent up to now is       55.8 secs

     total energy              =    -485.77059684 Ry
     estimated scf accuracy    <       0.00000007 Ry

     iteration # 19     ecut=    40.00 Ry     beta= 0.70
     Davidson diagonalization with overlap
     ethr =  2.60E-10,  avg # of iterations =  3.1

     total cpu time spent up to now is       56.8 secs

     total energy              =    -485.77059686 Ry
     estimated scf accuracy    <       0.00000002 Ry

     iteration # 20     ecut=    40.00 Ry     beta= 0.70
     Davidson diagonalization with overlap
     ethr =  6.44E-11,  avg # of iterations =  2.0

     total cpu time spent up to now is       57.7 secs

     End of self-consistent calculation

          k = 0.0000 0.0000 0.0000 (  1139 PWs)   bands (ev):

  -118.3888 -72.5585 -72.5585 -72.5585  -6.5554   0.1862   0.1862   0.1862
     0.6600   0.6600   6.4325   6.4325   6.4325

          k =-0.1242 0.1242-0.1242 (  1149 PWs)   bands (ev):

  -118.3888 -72.5586 -72.5585 -72.5585  -6.4430   0.1892   0.2062   0.2062
     0.6584   0.6584   5.3320   6.2909   6.2909

          k =-0.2483 0.2483-0.2483 (  1146 PWs)   bands (ev):

  -118.3888 -72.5586 -72.5586 -72.5586  -6.1502   0.2402   0.2501   0.2501
     0.6615   0.6615   3.6531   5.9815   5.9815

          k =-0.3725 0.3725-0.3725 (  1143 PWs)   bands (ev):

  -118.3888 -72.5586 -72.5586 -72.5586  -5.8190   0.2851   0.2851   0.4570
     0.6772   0.6772   2.1691   5.7049   5.7049

          k = 0.4967-0.4967 0.4967 (  1158 PWs)   bands (ev):

  -118.3888 -72.5586 -72.5586 -72.5586  -5.6673   0.2962   0.2962   0.6883
     0.6883   0.8536   1.2885   5.5973   5.5973

          k = 0.0000 0.2483 0.0000 (  1155 PWs)   bands (ev):

  -118.3888 -72.5586 -72.5585 -72.5585  -6.4055   0.1695   0.2235   0.2235
     0.6446   0.6703   5.3680   6.0407   6.0407

          k =-0.1242 0.3725-0.1242 (  1134 PWs)   bands (ev):

  -118.3888 -72.5586 -72.5586 -72.5586  -6.1721   0.1817   0.2701   0.2718
     0.6374   0.6799   4.1122   5.6757   5.7447

          k =-0.2483 0.4967-0.2483 (  1141 PWs)   bands (ev):

  -118.3888 -72.5586 -72.5586 -72.5586  -5.8488   0.2585   0.3116   0.3764
     0.6621   0.6910   2.6665   5.3370   5.4135

          k = 0.6208-0.3725 0.6208 (  1135 PWs)   bands (ev):

  -118.3888 -72.5586 -72.5586 -72.5586  -5.6289   0.2951   0.3262   0.6145
     0.6912   0.8180   1.5691   4.9940   5.3767

          k = 0.4967-0.2483 0.4967 (  1140 PWs)   bands (ev):

  -118.3888 -72.5586 -72.5586 -72.5586  -5.6797   0.2994   0.3147   0.5749
     0.6684   0.7296   1.8690   4.8757   5.5794

          k = 0.3725-0.1242 0.3725 (  1140 PWs)   bands (ev):

  -118.3888 -72.5586 -72.5586 -72.5586  -5.9595   0.2745   0.2782   0.3091
     0.6457   0.6886   3.1230   5.0622   5.9283

          k = 0.2483 0.0000 0.2483 (  1151 PWs)   bands (ev):

  -118.3888 -72.5586 -72.5586 -72.5586  -6.2698   0.1983   0.2308   0.2479
     0.6454   0.6710   4.4719   5.6121   6.2371

          k = 0.0000 0.4967 0.0000 (  1118 PWs)   bands (ev):

  -118.3888 -72.5586 -72.5585 -72.5585  -6.0146   0.1483   0.3259   0.3259
     0.6233   0.6954   3.8924   5.2434   5.2434

          k =-0.1242 0.6208-0.1242 (  1131 PWs)   bands (ev):

  -118.3888 -72.5586 -72.5586 -72.5586  -5.7504   0.1913   0.3805   0.3945
     0.6589   0.7064   2.9787   4.7318   4.9357

          k = 0.7450-0.2483 0.7450 (  1141 PWs)   bands (ev):

  -118.3888 -72.5586 -72.5586 -72.5586  -5.5292   0.2735   0.4019   0.5140
     0.7009   0.8201   2.0548   4.1145   4.8959

          k = 0.6208-0.1242 0.6208 (  1139 PWs)   bands (ev):

  -118.3888 -72.5586 -72.5586 -72.5586  -5.5038   0.3018   0.3850   0.6126
     0.6716   0.8784   1.8567   3.7592   5.1420

          k = 0.4967 0.0000 0.4967 (  1135 PWs)   bands (ev):

  -118.3888 -72.5586 -72.5586 -72.5586  -5.6919   0.3062   0.3356   0.4672
     0.6461   0.7192   2.5542   4.0095   5.5618

          k = 0.0000 0.7450 0.0000 (  1142 PWs)   bands (ev):

  -118.3888 -72.5586 -72.5586 -72.5586  -5.5718   0.1638   0.4510   0.4510
     0.6965   0.7204   2.6162   4.5589   4.5589

          k = 0.8692-0.1242 0.8692 (  1141 PWs)   bands (ev):

  -118.3888 -72.5586 -72.5586 -72.5586  -5.4185   0.2130   0.4802   0.4995
     0.7186   0.8459   2.1185   4.0282   4.4628

          k = 0.7450 0.0000 0.7450 (  1136 PWs)   bands (ev):

  -118.3888 -72.5586 -72.5586 -72.5586  -5.3915   0.2751   0.4544   0.5618
     0.6931   0.9870   1.9203   3.4313   4.6920

          k = 0.0000-0.9933 0.0000 (  1138 PWs)   bands (ev):

  -118.3888 -72.5586 -72.5586 -72.5586  -5.3690   0.1789   0.5119   0.5119
     0.7308   0.8664   1.9633   4.2923   4.2923

          k =-0.2483 0.4967 0.0000 (  1137 PWs)   bands (ev):

  -118.3888 -72.5586 -72.5586 -72.5586  -5.9210   0.2168   0.3133   0.3404
     0.6395   0.6957   3.3437   4.7920   5.5642

          k = 0.6208-0.3725 0.8692 (  1143 PWs)   bands (ev):

  -118.3888 -72.5586 -72.5586 -72.5586  -5.6446   0.2968   0.3432   0.4863
     0.6773   0.7313   2.3297   4.2805   5.2100

          k = 0.4967-0.2483 0.7450 (  1128 PWs)   bands (ev):

  -118.3888 -72.5586 -72.5586 -72.5586  -5.5211   0.3108   0.3630   0.6121
     0.6721   0.9163   1.6779   4.1621   5.0272

          k = 0.7450-0.2483 0.9933 (  1142 PWs)   bands (ev):

  -118.3888 -72.5586 -72.5586 -72.5586  -5.5372   0.2425   0.4100   0.4822
     0.7040   0.7597   2.4266   4.1571   4.5918

          k = 0.6208-0.1242 0.8692 (  1141 PWs)   bands (ev):

  -118.3888 -72.5586 -72.5586 -72.5586  -5.4122   0.3000   0.4290   0.5693
     0.6751   0.9572   1.9650   3.6510   4.4401

          k = 0.4967 0.0000 0.7450 (  1143 PWs)   bands (ev):

  -118.3888 -72.5586 -72.5586 -72.5586  -5.4597   0.3189   0.3939   0.6015
     0.6560   0.8903   2.0528   3.5457   4.7473

          k =-0.2483-0.9933 0.0000 (  1142 PWs)   bands (ev):

  -118.3888 -72.5586 -72.5586 -72.5586  -5.3661   0.2487   0.4785   0.5314
     0.7045   0.9525   1.9577   4.0321   4.0408

          k =-0.4967-0.9933 0.0000 (  1144 PWs)   bands (ev):

  -118.3888 -72.5586 -72.5586 -72.5586  -5.3633   0.3198   0.4534   0.6088
     0.6240   1.0360   1.9510   3.7925   3.8071

     highest occupied level (ev):     6.4325

!    total energy              =    -485.77059686 Ry
     estimated scf accuracy    <          3.1E-09 Ry

     The total energy is the sum of the following terms:
     one-electron contribution =    -457.57155942 Ry
     hartree contribution      =     235.43617674 Ry
     xc contribution           =     -50.68290455 Ry
     ewald contribution        =    -212.95230963 Ry

     convergence has been achieved in  20 iterations

     Forces acting on atoms (cartesian axes, Ry/au):

     atom    1 type  1   force =     0.00000000    0.00000000   -0.00000000
     atom    2 type  2   force =     0.00000000    0.00000000    0.00000000

     Total force =     0.000000     Total SCF correction =     0.000000


     Computing stress (Cartesian axis) and pressure

          total   stress  (Ry/bohr**3)                   (kbar)     P=        0.77
   0.00000525   0.00000000   0.00000000            0.77        0.00        0.00
   0.00000000   0.00000525   0.00000000            0.00        0.77        0.00
   0.00000000   0.00000000   0.00000525            0.00        0.00        0.77

     Energy error            =      9.9E-06
     Gradient error          =      1.3E-31
     Cell gradient error     =      5.3E-06


     number of scf cycles    =   3
     number of bfgs steps    =   2

     enthalpy old            =    -485.7705870002 Ry
     enthalpy new            =    -485.7705968605 Ry

     CASE: enthalpy_new < enthalpy_old

     new trust radius        =       0.0006198021 bohr
     new conv_thr            =       0.0000000100 Ry

     new unit-cell volume =    272.60942 a.u.^3 (    40.39655 Ang^3 )
     density =      4.00557 g/cm^3

CELL_PARAMETERS (alat= 10.22209553)
  -0.503458508   0.000000000   0.503458508
  -0.000000000   0.503458508   0.503458508
  -0.503458508   0.503458508   0.000000000

ATOMIC_POSITIONS (crystal)
Zn           -0.0000000000        0.0000000000       -0.0000000000
S             0.7500000000        0.7500000000        0.7500000000



     Writing output data file ./zns.save/
     NEW-OLD atomic charge density approx. for the potential
     extrapolated charge   26.01464, renormalised to   26.00000

     total cpu time spent up to now is       60.3 secs

     Self-consistent Calculation

     iteration #  1     ecut=    40.00 Ry     beta= 0.70
     Davidson diagonalization with overlap
     ethr =  1.00E-06,  avg # of iterations =  3.0

     total cpu time spent up to now is       61.4 secs

     total energy              =    -485.77005056 Ry
     estimated scf accuracy    <       0.00044563 Ry

     iteration #  2     ecut=    40.00 Ry     beta= 0.70
     Davidson diagonalization with overlap
     ethr =  1.71E-06,  avg # of iterations =  3.8

     total cpu time spent up to now is       62.6 secs

     total energy              =    -485.77040661 Ry
     estimated scf accuracy    <       0.00260831 Ry

     iteration #  3     ecut=    40.00 Ry     beta= 0.70
     Davidson diagonalization with overlap
     ethr =  1.71E-06,  avg # of iterations =  2.9

     total cpu time spent up to now is       63.6 secs

     total energy              =    -485.77060050 Ry
     estimated scf accuracy    <       0.00026307 Ry

     iteration #  4     ecut=    40.00 Ry     beta= 0.70
     Davidson diagonalization with overlap
     ethr =  1.01E-06,  avg # of iterations =  2.0

     total cpu time spent up to now is       64.5 secs

     total energy              =    -485.77059844 Ry
     estimated scf accuracy    <       0.00008156 Ry

     iteration #  5     ecut=    40.00 Ry     beta= 0.70
     Davidson diagonalization with overlap
     ethr =  3.14E-07,  avg # of iterations =  2.0

     total cpu time spent up to now is       65.4 secs

     total energy              =    -485.77060126 Ry
     estimated scf accuracy    <       0.00002896 Ry

     iteration #  6     ecut=    40.00 Ry     beta= 0.70
     Davidson diagonalization with overlap
     ethr =  1.11E-07,  avg # of iterations =  1.0

     total cpu time spent up to now is       66.2 secs

     total energy              =    -485.77059902 Ry
     estimated scf accuracy    <       0.00002204 Ry

     iteration #  7     ecut=    40.00 Ry     beta= 0.70
     Davidson diagonalization with overlap
     ethr =  8.48E-08,  avg # of iterations =  1.0

     total cpu time spent up to now is       67.0 secs

     total energy              =    -485.77059941 Ry
     estimated scf accuracy    <       0.00001167 Ry

     iteration #  8     ecut=    40.00 Ry     beta= 0.70
     Davidson diagonalization with overlap
     ethr =  4.49E-08,  avg # of iterations =  1.0

     total cpu time spent up to now is       67.8 secs

     total energy              =    -485.77059964 Ry
     estimated scf accuracy    <       0.00001181 Ry

     iteration #  9     ecut=    40.00 Ry     beta= 0.70
     Davidson diagonalization with overlap
     ethr =  4.49E-08,  avg # of iterations =  1.0

     total cpu time spent up to now is       68.5 secs

     total energy              =    -485.77060404 Ry
     estimated scf accuracy    <       0.00001143 Ry

     iteration # 10     ecut=    40.00 Ry     beta= 0.70
     Davidson diagonalization with overlap
     ethr =  4.39E-08,  avg # of iterations =  2.0

     total cpu time spent up to now is       69.4 secs

     total energy              =    -485.77058651 Ry
     estimated scf accuracy    <       0.00002969 Ry

     iteration # 11     ecut=    40.00 Ry     beta= 0.70
     Davidson diagonalization with overlap
     ethr =  4.39E-08,  avg # of iterations =  3.0

     total cpu time spent up to now is       70.6 secs

     total energy              =    -485.77059494 Ry
     estimated scf accuracy    <       0.00000640 Ry

     iteration # 12     ecut=    40.00 Ry     beta= 0.70
     Davidson diagonalization with overlap
     ethr =  2.46E-08,  avg # of iterations =  2.0

     total cpu time spent up to now is       71.6 secs

     total energy              =    -485.77059815 Ry
     estimated scf accuracy    <       0.00000156 Ry

     iteration # 13     ecut=    40.00 Ry     beta= 0.70
     Davidson diagonalization with overlap
     ethr =  6.00E-09,  avg # of iterations =  2.0

     total cpu time spent up to now is       72.5 secs

     total energy              =    -485.77059888 Ry
     estimated scf accuracy    <       0.00000562 Ry

     iteration # 14     ecut=    40.00 Ry     beta= 0.70
     Davidson diagonalization with overlap
     ethr =  6.00E-09,  avg # of iterations =  2.3

     total cpu time spent up to now is       73.5 secs

     total energy              =    -485.77059561 Ry
     estimated scf accuracy    <       0.00000987 Ry

     iteration # 15     ecut=    40.00 Ry     beta= 0.70
     Davidson diagonalization with overlap
     ethr =  6.00E-09,  avg # of iterations =  3.0

     total cpu time spent up to now is       74.7 secs

     total energy              =    -485.77059672 Ry
     estimated scf accuracy    <       0.00000050 Ry

     iteration # 16     ecut=    40.00 Ry     beta= 0.70
     Davidson diagonalization with overlap
     ethr =  1.93E-09,  avg # of iterations =  1.0

     total cpu time spent up to now is       75.5 secs

     total energy              =    -485.77059638 Ry
     estimated scf accuracy    <       0.00000052 Ry

     iteration # 17     ecut=    40.00 Ry     beta= 0.70
     Davidson diagonalization with overlap
     ethr =  1.93E-09,  avg # of iterations =  3.0

     total cpu time spent up to now is       76.6 secs

     total energy              =    -485.77059653 Ry
     estimated scf accuracy    <       0.00000053 Ry

     iteration # 18     ecut=    40.00 Ry     beta= 0.70
     Davidson diagonalization with overlap
     ethr =  1.93E-09,  avg # of iterations =  2.0

     total cpu time spent up to now is       77.6 secs

     total energy              =    -485.77059659 Ry
     estimated scf accuracy    <       0.00000002 Ry

     iteration # 19     ecut=    40.00 Ry     beta= 0.70
     Davidson diagonalization with overlap
     ethr =  7.01E-11,  avg # of iterations =  3.1

     total cpu time spent up to now is       78.7 secs

     total energy              =    -485.77059660 Ry
     estimated scf accuracy    <       0.00000002 Ry

     iteration # 20     ecut=    40.00 Ry     beta= 0.70
     Davidson diagonalization with overlap
     ethr =  6.33E-11,  avg # of iterations =  2.0

     total cpu time spent up to now is       79.7 secs

     End of self-consistent calculation

          k = 0.0000 0.0000 0.0000 (  1139 PWs)   bands (ev):

  -118.3952 -72.5649 -72.5649 -72.5649  -6.5593   0.1806   0.1806   0.1806
     0.6537   0.6537   6.4248   6.4248   6.4248

          k =-0.1241 0.1241-0.1241 (  1149 PWs)   bands (ev):

  -118.3952 -72.5649 -72.5649 -72.5649  -6.4471   0.1836   0.2006   0.2006
     0.6522   0.6522   5.3247   6.2833   6.2833

          k =-0.2483 0.2483-0.2483 (  1146 PWs)   bands (ev):

  -118.3952 -72.5650 -72.5649 -72.5649  -6.1545   0.2348   0.2445   0.2445
     0.6552   0.6552   3.6467   5.9743   5.9743

          k =-0.3724 0.3724-0.3724 (  1143 PWs)   bands (ev):

  -118.3951 -72.5650 -72.5649 -72.5649  -5.8237   0.2794   0.2794   0.4515
     0.6709   0.6709   2.1637   5.6979   5.6979

          k = 0.4966-0.4966 0.4966 (  1158 PWs)   bands (ev):

  -118.3951 -72.5650 -72.5649 -72.5649  -5.6723   0.2905   0.2905   0.6820
     0.6820   0.8471   1.2844   5.5904   5.5904

          k = 0.0000 0.2483 0.0000 (  1155 PWs)   bands (ev):

  -118.3952 -72.5649 -72.5649 -72.5649  -6.4096   0.1640   0.2179   0.2179
     0.6383   0.6640   5.3604   6.0334   6.0334

          k =-0.1241 0.3724-0.1241 (  1134 PWs)   bands (ev):

  -118.3952 -72.5650 -72.5649 -72.5649  -6.1764   0.1762   0.2644   0.2661
     0.6312   0.6736   4.1054   5.6688   5.7376

          k =-0.2483 0.4966-0.2483 (  1141 PWs)   bands (ev):

  -118.3951 -72.5650 -72.5649 -72.5649  -5.8535   0.2529   0.3058   0.3708
     0.6559   0.6847   2.6606   5.3302   5.4068

          k = 0.6207-0.3724 0.6207 (  1135 PWs)   bands (ev):

  -118.3951 -72.5650 -72.5649 -72.5649  -5.6339   0.2894   0.3204   0.6085
     0.6849   0.8117   1.5644   4.9875   5.3699

          k = 0.4966-0.2483 0.4966 (  1140 PWs)   bands (ev):

  -118.3951 -72.5650 -72.5649 -72.5649  -5.6846   0.2937   0.3090   0.5692
     0.6621   0.7233   1.8639   4.8693   5.5725

          k = 0.3724-0.1241 0.3724 (  1140 PWs)   bands (ev):

  -118.3951 -72.5650 -72.5649 -72.5649  -5.9641   0.2689   0.2725   0.3036
     0.6395   0.6823   3.1168   5.0557   5.9210

          k = 0.2483 0.0000 0.2483 (  1151 PWs)   bands (ev):

  -118.3952 -72.5650 -72.5649 -72.5649  -6.2740   0.1928   0.2251   0.2422
     0.6392   0.6647   4.4648   5.6052   6.2295

          k = 0.0000 0.4966 0.0000 (  1118 PWs)   bands (ev):

  -118.3952 -72.5650 -72.5649 -72.5649  -6.0191   0.1430   0.3202   0.3202
     0.6172   0.6890   3.8854   5.2369   5.2369

          k =-0.1241 0.6207-0.1241 (  1131 PWs)   bands (ev):

  -118.3951 -72.5650 -72.5649 -72.5649  -5.7552   0.1860   0.3747   0.3887
     0.6527   0.7000   2.9723   4.7256   4.9294

          k = 0.7448-0.2483 0.7448 (  1141 PWs)   bands (ev):

  -118.3951 -72.5650 -72.5650 -72.5649  -5.5343   0.2680   0.3960   0.5081
     0.6945   0.8138   2.0495   4.1088   4.8896

          k = 0.6207-0.1241 0.6207 (  1139 PWs)   bands (ev):

  -118.3951 -72.5650 -72.5650 -72.5649  -5.5090   0.2962   0.3792   0.6064
     0.6653   0.8721   1.8517   3.7536   5.1355

          k = 0.4966 0.0000 0.4966 (  1135 PWs)   bands (ev):

  -118.3951 -72.5650 -72.5650 -72.5649  -5.6968   0.3005   0.3298   0.4616
     0.6399   0.7129   2.5483   4.0039   5.5549

          k = 0.0000 0.7448 0.0000 (  1142 PWs)   bands (ev):

  -118.3951 -72.5650 -72.5649 -72.5649  -5.5768   0.1586   0.4450   0.4450
     0.6903   0.7140   2.6100   4.5529   4.5529

          k = 0.8690-0.1241 0.8690 (  1141 PWs)   bands (ev):

  -118.3951 -72.5650 -72.5650 -72.5650  -5.4237   0.2077   0.4742   0.4935
     0.7123   0.8395   2.1128   4.0227   4.4570

          k = 0.7448 0.0000 0.7448 (  1136 PWs)   bands (ev):

  -118.3951 -72.5650 -72.5650 -72.5650  -5.3968   0.2696   0.4484   0.5557
     0.6868   0.9803   1.9153   3.4262   4.6859

          k = 0.0000-0.9931 0.0000 (  1138 PWs)   bands (ev):

  -118.3951 -72.5650 -72.5649 -72.5649  -5.3743   0.1738   0.5058   0.5058
     0.7244   0.8600   1.9577   4.2866   4.2866

          k =-0.2483 0.4966 0.0000 (  1137 PWs)   bands (ev):

  -118.3951 -72.5650 -72.5649 -72.5649  -5.9256   0.2114   0.3075   0.3347
     0.6333   0.6894   3.3372   4.7858   5.5573

          k = 0.6207-0.3724 0.8690 (  1143 PWs)   bands (ev):

  -118.3951 -72.5650 -72.5650 -72.5649  -5.6495   0.2911   0.3375   0.4806
     0.6711   0.7250   2.3241   4.2746   5.2034

          k = 0.4966-0.2483 0.7448 (  1128 PWs)   bands (ev):

  -118.3951 -72.5650 -72.5649 -72.5649  -5.5262   0.3051   0.3572   0.6060
     0.6658   0.9098   1.6734   4.1561   5.0208

          k = 0.7448-0.2483 0.9931 (  1142 PWs)   bands (ev):

  -118.3951 -72.5650 -72.5650 -72.5649  -5.5423   0.2372   0.4041   0.4762
     0.6977   0.7534   2.4207   4.1515   4.5858

          k = 0.6207-0.1241 0.8690 (  1141 PWs)   bands (ev):

  -118.3951 -72.5650 -72.5650 -72.5649  -5.4174   0.2944   0.4231   0.5632
     0.6688   0.9506   1.9599   3.6457   4.4343

          k = 0.4966 0.0000 0.7448 (  1143 PWs)   bands (ev):

  -118.3951 -72.5650 -72.5650 -72.5649  -5.4649   0.3133   0.3881   0.5953
     0.6498   0.8839   2.0475   3.5405   4.7412

          k =-0.2483-0.9931 0.0000 (  1142 PWs)   bands (ev):

  -118.3951 -72.5650 -72.5650 -72.5650  -5.3714   0.2434   0.4725   0.5254
     0.6981   0.9459   1.9524   4.0267   4.0352

          k =-0.4966-0.9931 0.0000 (  1144 PWs)   bands (ev):

  -118.3951 -72.5650 -72.5650 -72.5650  -5.3686   0.3142   0.4474   0.6027
     0.6178   1.0292   1.9459   3.7874   3.8015

     highest occupied level (ev):     6.4248

!    total energy              =    -485.77059660 Ry
     estimated scf accuracy    <          1.6E-09 Ry

     The total energy is the sum of the following terms:
     one-electron contribution =    -457.64023224 Ry
     hartree contribution      =     235.46442401 Ry
     xc contribution           =     -50.68245257 Ry
     ewald contribution        =    -212.91233581 Ry

     convergence has been achieved in  20 iterations

     Forces acting on atoms (cartesian axes, Ry/au):

     atom    1 type  1   force =     0.00000000    0.00000000   -0.00000000
     atom    2 type  2   force =     0.00000000    0.00000000   -0.00000000

     Total force =     0.000000     Total SCF correction =     0.000000


     Computing stress (Cartesian axis) and pressure

          total   stress  (Ry/bohr**3)                   (kbar)     P=        0.31
   0.00000214  -0.00000000   0.00000000            0.31       -0.00        0.00
  -0.00000000   0.00000214   0.00000000           -0.00        0.31        0.00
   0.00000000   0.00000000   0.00000214            0.00        0.00        0.31

     Energy error            =      2.6E-07
     Gradient error          =      2.6E-31
     Cell gradient error     =      2.1E-06


     bfgs converged in   4 scf cycles and   3 bfgs steps
     (criteria: energy <  1.0E-04 Ry, force <  1.0E-03Ry/Bohr, cell <  5.0E-01kbar)

     End of BFGS Geometry Optimization

     Final enthalpy =    -485.7705966027 Ry

     File ./zns.bfgs deleted, as requested
Begin final coordinates
     new unit-cell volume =    272.60942 a.u.^3 (    40.39655 Ang^3 )
     density =      4.00557 g/cm^3

CELL_PARAMETERS (alat= 10.22209553)
  -0.503458508   0.000000000   0.503458508
  -0.000000000   0.503458508   0.503458508
  -0.503458508   0.503458508   0.000000000

ATOMIC_POSITIONS (crystal)
Zn           -0.0000000000        0.0000000000       -0.0000000000
S             0.7500000000        0.7500000000        0.7500000000
End final coordinates



     Writing output data file ./zns.save/

     Final scf calculation at the relaxed structure.
     The G-vectors are recalculated for the final unit cell
     Results may differ from those at the preceding step.

     G-vector sticks info
     --------------------
     sticks:   dense  smooth     PW     G-vecs:    dense   smooth      PW
     Sum         745     583    187                13107     9377    1639



     bravais-lattice index     =            2
     lattice parameter (alat)  =      10.2221  a.u.
     unit-cell volume          =     272.6094 (a.u.)^3
     number of atoms/cell      =            2
     number of atomic types    =            2
     number of electrons       =        26.00
     number of Kohn-Sham states=           13
     kinetic-energy cutoff     =      40.0000  Ry
     charge density cutoff     =     200.0000  Ry
     scf convergence threshold =      1.0E-08
     mixing beta               =       0.7000
     number of iterations used =            8  plain     mixing
     press convergence thresh. =      5.0E-01
     Exchange-correlation=  SLA  PW   PBX  PBC
                           (   1   4   3   4   0   0   0)

     celldm(1)=  10.222096  celldm(2)=   0.000000  celldm(3)=   0.000000
     celldm(4)=   0.000000  celldm(5)=   0.000000  celldm(6)=   0.000000

     crystal axes: (cart. coord. in units of alat)
               a(1) = (  -0.503459   0.000000   0.503459 )  
               a(2) = (  -0.000000   0.503459   0.503459 )  
               a(3) = (  -0.503459   0.503459   0.000000 )  

     reciprocal axes: (cart. coord. in units 2 pi/alat)
               b(1) = ( -0.993131 -0.993131  0.993131 )  
               b(2) = (  0.993131  0.993131  0.993131 )  
               b(3) = ( -0.993131  0.993131 -0.993131 )  


     PseudoPot. # 1 for Zn read from file:
     /home/antti/espresso/pseudo/zn_pbe_v1.uspp.F.UPF
     MD5 check sum: df62231357ef9e81f77b2b3087fa5675
     Pseudo is Ultrasoft, Zval = 20.0
     Generated by new atomic code, or converted to UPF format
     Using radial grid of  943 points,  6 beta functions with: 
                l(1) =   0
                l(2) =   0
                l(3) =   1
                l(4) =   1
                l(5) =   2
                l(6) =   2
     Q(r) pseudized with  8 coefficients,  rinner =    1.100   1.100   1.100
                                                       1.100   1.100

     PseudoPot. # 2 for S  read from file:
     /home/antti/espresso/pseudo/s_pbe_v1.4.uspp.F.UPF
     MD5 check sum: 88d86576ff6df21479756cfb9bdac1df
     Pseudo is Ultrasoft + core correction, Zval =  6.0
     Generated by new atomic code, or converted to UPF format
     Using radial grid of  907 points,  6 beta functions with: 
                l(1) =   0
                l(2) =   0
                l(3) =   1
                l(4) =   1
                l(5) =   2
                l(6) =   2
     Q(r) pseudized with  8 coefficients,  rinner =    1.300   1.300   1.300
                                                       1.300   1.300

     atomic species   valence    mass     pseudopotential
        Zn            20.00    65.38000     Zn( 1.00)
        S              6.00    32.06500     S ( 1.00)

     24 Sym. Ops. (no inversion) found



   Cartesian axes

     site n.     atom                  positions (alat units)
         1           Zn  tau(   1) = (   0.0000000   0.0000000   0.0000000  )
         2           S   tau(   2) = (  -0.7551878   0.7551878   0.7551878  )

     number of k points=    29
                       cart. coord. in units 2pi/alat
        k(    1) = (   0.0000000   0.0000000   0.0000000), wk =   0.0039062
        k(    2) = (  -0.1241413   0.1241413  -0.1241413), wk =   0.0312500
        k(    3) = (  -0.2482826   0.2482826  -0.2482826), wk =   0.0312500
        k(    4) = (  -0.3724239   0.3724239  -0.3724239), wk =   0.0312500
        k(    5) = (   0.4965653  -0.4965653   0.4965653), wk =   0.0156250
        k(    6) = (   0.0000000   0.2482826   0.0000000), wk =   0.0234375
        k(    7) = (  -0.1241413   0.3724239  -0.1241413), wk =   0.0937500
        k(    8) = (  -0.2482826   0.4965653  -0.2482826), wk =   0.0937500
        k(    9) = (   0.6207066  -0.3724239   0.6207066), wk =   0.0937500
        k(   10) = (   0.4965653  -0.2482826   0.4965653), wk =   0.0937500
        k(   11) = (   0.3724239  -0.1241413   0.3724239), wk =   0.0937500
        k(   12) = (   0.2482826   0.0000000   0.2482826), wk =   0.0468750
        k(   13) = (   0.0000000   0.4965653   0.0000000), wk =   0.0234375
        k(   14) = (  -0.1241413   0.6207066  -0.1241413), wk =   0.0937500
        k(   15) = (   0.7448479  -0.2482826   0.7448479), wk =   0.0937500
        k(   16) = (   0.6207066  -0.1241413   0.6207066), wk =   0.0937500
        k(   17) = (   0.4965653   0.0000000   0.4965653), wk =   0.0468750
        k(   18) = (   0.0000000   0.7448479   0.0000000), wk =   0.0234375
        k(   19) = (   0.8689892  -0.1241413   0.8689892), wk =   0.0937500
        k(   20) = (   0.7448479   0.0000000   0.7448479), wk =   0.0468750
        k(   21) = (   0.0000000  -0.9931305   0.0000000), wk =   0.0117188
        k(   22) = (  -0.2482826   0.4965653   0.0000000), wk =   0.0937500
        k(   23) = (   0.6207066  -0.3724239   0.8689892), wk =   0.1875000
        k(   24) = (   0.4965653  -0.2482826   0.7448479), wk =   0.0937500
        k(   25) = (   0.7448479  -0.2482826   0.9931305), wk =   0.0937500
        k(   26) = (   0.6207066  -0.1241413   0.8689892), wk =   0.1875000
        k(   27) = (   0.4965653   0.0000000   0.7448479), wk =   0.0937500
        k(   28) = (  -0.2482826  -0.9931305   0.0000000), wk =   0.0468750
        k(   29) = (  -0.4965653  -0.9931305   0.0000000), wk =   0.0234375

     Dense  grid:    13107 G-vectors     FFT dimensions: (  36,  36,  36)

     Smooth grid:     9377 G-vectors     FFT dimensions: (  30,  30,  30)

     Estimated max dynamical RAM per process >      61.53 MB

     Initial potential from superposition of free atoms

     starting charge   25.99982, renormalised to   26.00000
     Starting wfcs are   17 randomized atomic wfcs

     total cpu time spent up to now is       83.2 secs

     Self-consistent Calculation

     iteration #  1     ecut=    40.00 Ry     beta= 0.70
     Davidson diagonalization with overlap
     ethr =  1.00E-06,  avg # of iterations =  8.8

     total cpu time spent up to now is       85.6 secs

     total energy              =    -485.72736431 Ry
     estimated scf accuracy    <       0.10526702 Ry

     iteration #  2     ecut=    40.00 Ry     beta= 0.70
     Davidson diagonalization with overlap
     ethr =  4.05E-04,  avg # of iterations =  2.8

     total cpu time spent up to now is       86.7 secs

     total energy              =    -485.75128519 Ry
     estimated scf accuracy    <       0.08551950 Ry

     iteration #  3     ecut=    40.00 Ry     beta= 0.70
     Davidson diagonalization with overlap
     ethr =  3.29E-04,  avg # of iterations =  2.0

     total cpu time spent up to now is       87.7 secs

     total energy              =    -485.77001531 Ry
     estimated scf accuracy    <       0.00244720 Ry

     iteration #  4     ecut=    40.00 Ry     beta= 0.70
     Davidson diagonalization with overlap
     ethr =  9.41E-06,  avg # of iterations =  2.6

     total cpu time spent up to now is       88.9 secs

     total energy              =    -485.77059393 Ry
     estimated scf accuracy    <       0.00013692 Ry

     iteration #  5     ecut=    40.00 Ry     beta= 0.70
     Davidson diagonalization with overlap
     ethr =  5.27E-07,  avg # of iterations =  2.2

     total cpu time spent up to now is       90.0 secs

     total energy              =    -485.77060462 Ry
     estimated scf accuracy    <       0.00001057 Ry

     iteration #  6     ecut=    40.00 Ry     beta= 0.70
     Davidson diagonalization with overlap
     ethr =  4.07E-08,  avg # of iterations =  2.3

     total cpu time spent up to now is       91.1 secs

     total energy              =    -485.77060681 Ry
     estimated scf accuracy    <       0.00000119 Ry

     iteration #  7     ecut=    40.00 Ry     beta= 0.70
     Davidson diagonalization with overlap
     ethr =  4.56E-09,  avg # of iterations =  3.1

     total cpu time spent up to now is       92.4 secs

     total energy              =    -485.77060731 Ry
     estimated scf accuracy    <       0.00000087 Ry

     iteration #  8     ecut=    40.00 Ry     beta= 0.70
     Davidson diagonalization with overlap
     ethr =  3.35E-09,  avg # of iterations =  2.0

     total cpu time spent up to now is       93.5 secs

     total energy              =    -485.77060748 Ry
     estimated scf accuracy    <       0.00000001 Ry

     iteration #  9     ecut=    40.00 Ry     beta= 0.70
     Davidson diagonalization with overlap
     ethr =  4.14E-11,  avg # of iterations =  5.9

     total cpu time spent up to now is       95.0 secs

     total energy              =    -485.77060749 Ry
     estimated scf accuracy    <       0.00000003 Ry

     iteration # 10     ecut=    40.00 Ry     beta= 0.70
     Davidson diagonalization with overlap
     ethr =  4.14E-11,  avg # of iterations =  2.4

     total cpu time spent up to now is       96.1 secs

     End of self-consistent calculation

          k = 0.0000 0.0000 0.0000 (  1211 PWs)   bands (ev):

  -118.3948 -72.5645 -72.5645 -72.5645  -6.5594   0.1808   0.1808   0.1808
     0.6540   0.6540   6.4248   6.4248   6.4248

          k =-0.1241 0.1241-0.1241 (  1185 PWs)   bands (ev):

  -118.3947 -72.5645 -72.5645 -72.5645  -6.4471   0.1838   0.2008   0.2008
     0.6524   0.6524   5.3247   6.2834   6.2834

          k =-0.2483 0.2483-0.2483 (  1176 PWs)   bands (ev):

  -118.3947 -72.5646 -72.5645 -72.5645  -6.1546   0.2350   0.2447   0.2447
     0.6555   0.6555   3.6468   5.9743   5.9743

          k =-0.3724 0.3724-0.3724 (  1161 PWs)   bands (ev):

  -118.3947 -72.5646 -72.5645 -72.5645  -5.8237   0.2797   0.2797   0.4517
     0.6712   0.6712   2.1637   5.6979   5.6979

          k = 0.4966-0.4966 0.4966 (  1170 PWs)   bands (ev):

  -118.3947 -72.5646 -72.5645 -72.5645  -5.6723   0.2907   0.2907   0.6823
     0.6823   0.8474   1.2844   5.5904   5.5904

          k = 0.0000 0.2483 0.0000 (  1179 PWs)   bands (ev):

  -118.3947 -72.5646 -72.5645 -72.5645  -6.4097   0.1642   0.2181   0.2181
     0.6386   0.6643   5.3604   6.0334   6.0334

          k =-0.1241 0.3724-0.1241 (  1167 PWs)   bands (ev):

  -118.3947 -72.5646 -72.5645 -72.5645  -6.1765   0.1764   0.2646   0.2663
     0.6315   0.6739   4.1054   5.6688   5.7376

          k =-0.2483 0.4966-0.2483 (  1151 PWs)   bands (ev):

  -118.3947 -72.5646 -72.5646 -72.5645  -5.8536   0.2531   0.3061   0.3711
     0.6562   0.6850   2.6607   5.3302   5.4068

          k = 0.6207-0.3724 0.6207 (  1164 PWs)   bands (ev):

  -118.3947 -72.5646 -72.5646 -72.5645  -5.6339   0.2897   0.3207   0.6088
     0.6851   0.8120   1.5645   4.9875   5.3700

          k = 0.4966-0.2483 0.4966 (  1160 PWs)   bands (ev):

  -118.3947 -72.5646 -72.5646 -72.5645  -5.6846   0.2939   0.3092   0.5694
     0.6624   0.7236   1.8640   4.8693   5.5725

          k = 0.3724-0.1241 0.3724 (  1167 PWs)   bands (ev):

  -118.3947 -72.5646 -72.5646 -72.5645  -5.9641   0.2691   0.2727   0.3038
     0.6397   0.6825   3.1168   5.0557   5.9210

          k = 0.2483 0.0000 0.2483 (  1169 PWs)   bands (ev):

  -118.3947 -72.5646 -72.5645 -72.5645  -6.2741   0.1930   0.2254   0.2424
     0.6395   0.6650   4.4648   5.6052   6.2295

          k = 0.0000 0.4966 0.0000 (  1174 PWs)   bands (ev):

  -118.3947 -72.5646 -72.5646 -72.5646  -6.0191   0.1432   0.3204   0.3204
     0.6174   0.6893   3.8854   5.2369   5.2369

          k =-0.1241 0.6207-0.1241 (  1162 PWs)   bands (ev):

  -118.3947 -72.5646 -72.5646 -72.5646  -5.7553   0.1862   0.3749   0.3890
     0.6529   0.7003   2.9724   4.7256   4.9294

          k = 0.7448-0.2483 0.7448 (  1168 PWs)   bands (ev):

  -118.3947 -72.5646 -72.5646 -72.5646  -5.5343   0.2682   0.3963   0.5084
     0.6948   0.8141   2.0496   4.1088   4.8896

          k = 0.6207-0.1241 0.6207 (  1164 PWs)   bands (ev):

  -118.3947 -72.5646 -72.5646 -72.5646  -5.5090   0.2964   0.3794   0.6067
     0.6656   0.8724   1.8518   3.7537   5.1355

          k = 0.4966 0.0000 0.4966 (  1159 PWs)   bands (ev):

  -118.3947 -72.5646 -72.5646 -72.5646  -5.6968   0.3007   0.3301   0.4618
     0.6402   0.7132   2.5484   4.0039   5.5549

          k = 0.0000 0.7448 0.0000 (  1162 PWs)   bands (ev):

  -118.3947 -72.5646 -72.5646 -72.5646  -5.5769   0.1588   0.4453   0.4453
     0.6906   0.7143   2.6101   4.5529   4.5529

          k = 0.8690-0.1241 0.8690 (  1166 PWs)   bands (ev):

  -118.3947 -72.5646 -72.5646 -72.5646  -5.4238   0.2079   0.4745   0.4937
     0.7126   0.8398   2.1129   4.0227   4.4570

          k = 0.7448 0.0000 0.7448 (  1154 PWs)   bands (ev):

  -118.3947 -72.5646 -72.5646 -72.5646  -5.3968   0.2698   0.4487   0.5560
     0.6871   0.9806   1.9153   3.4263   4.6859

          k = 0.0000-0.9931 0.0000 (  1162 PWs)   bands (ev):

  -118.3947 -72.5646 -72.5646 -72.5646  -5.3743   0.1740   0.5061   0.5061
     0.7247   0.8602   1.9578   4.2865   4.2865

          k =-0.2483 0.4966 0.0000 (  1169 PWs)   bands (ev):

  -118.3947 -72.5646 -72.5646 -72.5645  -5.9257   0.2116   0.3078   0.3349
     0.6336   0.6897   3.3372   4.7858   5.5573

          k = 0.6207-0.3724 0.8690 (  1162 PWs)   bands (ev):

  -118.3947 -72.5646 -72.5646 -72.5646  -5.6496   0.2914   0.3377   0.4808
     0.6713   0.7253   2.3242   4.2746   5.2034

          k = 0.4966-0.2483 0.7448 (  1164 PWs)   bands (ev):

  -118.3947 -72.5646 -72.5646 -72.5646  -5.5263   0.3053   0.3575   0.6063
     0.6661   0.9101   1.6734   4.1562   5.0208

          k = 0.7448-0.2483 0.9931 (  1171 PWs)   bands (ev):

  -118.3947 -72.5646 -72.5646 -72.5646  -5.5423   0.2374   0.4044   0.4765
     0.6979   0.7537   2.4208   4.1515   4.5858

          k = 0.6207-0.1241 0.8690 (  1164 PWs)   bands (ev):

  -118.3947 -72.5646 -72.5646 -72.5646  -5.4175   0.2947   0.4233   0.5635
     0.6691   0.9509   1.9599   3.6457   4.4343

          k = 0.4966 0.0000 0.7448 (  1166 PWs)   bands (ev):

  -118.3947 -72.5646 -72.5646 -72.5646  -5.4649   0.3135   0.3883   0.5956
     0.6500   0.8841   2.0476   3.5405   4.7412

          k =-0.2483-0.9931 0.0000 (  1160 PWs)   bands (ev):

  -118.3947 -72.5646 -72.5646 -72.5646  -5.3715   0.2436   0.4727   0.5257
     0.6984   0.9462   1.9525   4.0267   4.0352

          k =-0.4966-0.9931 0.0000 (  1176 PWs)   bands (ev):

  -118.3947 -72.5646 -72.5646 -72.5646  -5.3687   0.3144   0.4476   0.6030
     0.6181   1.0295   1.9459   3.7874   3.8016

     highest occupied level (ev):     6.4248

!    total energy              =    -485.77060749 Ry
     estimated scf accuracy    <          7.5E-11 Ry

     The total energy is the sum of the following terms:
     one-electron contribution =    -457.63954792 Ry
     hartree contribution      =     235.46369946 Ry
     xc contribution           =     -50.68242324 Ry
     ewald contribution        =    -212.91233579 Ry

     convergence has been achieved in  10 iterations

     Forces acting on atoms (cartesian axes, Ry/au):

     atom    1 type  1   force =     0.00000000    0.00000000   -0.00000000
     atom    2 type  2   force =     0.00000000   -0.00000000    0.00000000

     Total force =     0.000000     Total SCF correction =     0.000000


     Computing stress (Cartesian axis) and pressure

          total   stress  (Ry/bohr**3)                   (kbar)     P=       -0.20
  -0.00000138  -0.00000000  -0.00000000           -0.20       -0.00       -0.00
  -0.00000000  -0.00000138   0.00000000           -0.00       -0.20        0.00
   0.00000000   0.00000000  -0.00000138            0.00        0.00       -0.20


     Writing output data file ./zns.save/

     init_run     :      4.30s CPU      4.38s WALL (       2 calls)
     electrons    :     80.00s CPU     81.89s WALL (       5 calls)
     update_pot   :      2.16s CPU      2.16s WALL (       3 calls)
     forces       :      2.41s CPU      2.44s WALL (       5 calls)
     stress       :      6.51s CPU      6.67s WALL (       5 calls)

     Called by init_run:
     wfcinit      :      0.95s CPU      0.99s WALL (       2 calls)
     potinit      :      0.62s CPU      0.63s WALL (       2 calls)
     hinit0       :      2.54s CPU      2.54s WALL (       2 calls)

     Called by electrons:
     c_bands      :     57.79s CPU     58.21s WALL (      79 calls)
     sum_band     :     15.53s CPU     16.31s WALL (      79 calls)
     v_of_rho     :      1.30s CPU      1.35s WALL (      83 calls)
     newd         :      5.49s CPU      6.18s WALL (      83 calls)
     mix_rho      :      0.18s CPU      0.19s WALL (      79 calls)

     Called by c_bands:
     init_us_2    :      1.56s CPU      1.58s WALL (    4930 calls)
     cegterg      :     54.59s CPU     54.98s WALL (    2291 calls)

     Called by *egterg:
     cdiaghg      :      1.22s CPU      1.27s WALL (    7519 calls)
     h_psi        :     49.07s CPU     49.42s WALL (    7693 calls)
     s_psi        :      0.76s CPU      0.76s WALL (    7693 calls)
     g_psi        :      0.27s CPU      0.27s WALL (    5344 calls)

     Called by h_psi:
     h_psi:calbec :      1.86s CPU      1.87s WALL (    7693 calls)
     vloc_psi     :     46.27s CPU     46.60s WALL (    7693 calls)
     add_vuspsi   :      0.79s CPU      0.80s WALL (    7693 calls)

     General routines
     calbec       :      2.65s CPU      2.68s WALL (   10709 calls)
     fft          :      0.70s CPU      0.72s WALL (    1198 calls)
     ffts         :      0.10s CPU      0.10s WALL (     162 calls)
     fftw         :     50.86s CPU     51.25s WALL (  193737 calls)
     interpolate  :      0.11s CPU      0.11s WALL (      83 calls)

     Parallel routines

     PWSCF        :   1m35.86s CPU   1m38.06s WALL


   This run was terminated on:  22: 0:51  10Jul2021            

=------------------------------------------------------------------------------=
   JOB DONE.
=------------------------------------------------------------------------------=
