      -----------------------------------------------------------      
     |                   =====================                   |     
     |                           x T B                           |     
     |                   =====================                   |     
     |                         S. Grimme                         |     
     |          Mulliken Center for Theoretical Chemistry        |     
     |                    University of Bonn                     |     
      -----------------------------------------------------------      

   * xtb version 6.4.0 (4cdc11a) compiled by 'conda@a8a27530561a' on 2021-02-01

   xtb is free software: you can redistribute it and/or modify it under
   the terms of the GNU Lesser General Public License as published by
   the Free Software Foundation, either version 3 of the License, or
   (at your option) any later version.
   
   xtb is distributed in the hope that it will be useful,
   but WITHOUT ANY WARRANTY; without even the implied warranty of
   MERCHANTABILITY or FITNESS FOR A PARTICULAR PURPOSE.  See the
   GNU Lesser General Public License for more details.
   
   Cite this work as:
   * C. Bannwarth, E. Caldeweyher, S. Ehlert, A. Hansen, P. Pracht,
     J. Seibert, S. Spicher, S. Grimme, WIREs Comput. Mol. Sci., 2020,
     e01493. DOI: 10.1002/wcms.1493
   
   for GFN2-xTB:
   * C. Bannwarth, S. Ehlert and S. Grimme., J. Chem. Theory Comput., 2019,
     15, 1652-1671. DOI: 10.1021/acs.jctc.8b01176
   for GFN1-xTB:
   * S. Grimme, C. Bannwarth, P. Shushkov, J. Chem. Theory Comput., 2017,
     13, 1989-2009. DOI: 10.1021/acs.jctc.7b00118
   for GFN0-xTB:
   * P. Pracht, E. Caldeweyher, S. Ehlert, S. Grimme, ChemRxiv, 2019, preprint.
     DOI: 10.26434/chemrxiv.8326202.v1
   for GFN-FF:
   * S. Spicher and S. Grimme, Angew. Chem. Int. Ed., 2020, 59, 15665-15673.
     DOI: 10.1002/anie.202004239
   
   for DFT-D4:
   * E. Caldeweyher, C. Bannwarth and S. Grimme, J. Chem. Phys., 2017,
     147, 034112. DOI: 10.1063/1.4993215
   * E. Caldeweyher, S. Ehlert, A. Hansen, H. Neugebauer, S. Spicher,
     C. Bannwarth and S. Grimme, J. Chem. Phys., 2019, 150, 154122.
     DOI: 10.1063/1.5090222
   * E. Caldeweyher, J.-M. Mewes, S. Ehlert and S. Grimme, Phys. Chem. Chem. Phys.
     2020, 22, 8499-8512. DOI: 10.1039/D0CP00502A
   
   for sTDA-xTB:
   * S. Grimme and C. Bannwarth, J. Chem. Phys., 2016, 145, 054103.
     DOI: 10.1063/1.4959605
   
   in the mass-spec context:
   * V. Asgeirsson, C. Bauer and S. Grimme, Chem. Sci., 2017, 8, 4879.
     DOI: 10.1039/c7sc00601b
   * J. Koopman and S. Grimme, ACS Omega 2019, 4, 12, 15120-15133.
     DOI: 10.1021/acsomega.9b02011
   
   for metadynamics refer to:
   * S. Grimme, J. Chem. Theory Comput., 2019, 155, 2847-2862
     DOI: 10.1021/acs.jctc.9b00143
   
   with help from (in alphabetical order)
   P. Atkinson, C. Bannwarth, F. Bohle, G. Brandenburg, E. Caldeweyher
   M. Checinski, S. Dohm, S. Ehlert, S. Ehrlich, I. Gerasimov, J. Koopman
   C. Lavinge, S. Lehtola, F. März, M. Müller, F. Musil, H. Neugebauer
   J. Pisarek, P. Pracht, J. Seibert, P. Shushkov, S. Spicher, M. Stahn
   T. Strunk, J. Stückrath, T. Rose, and J. Unsleber
   
 * started run on 2021/06/07 at 16:02:12.666     

           -------------------------------------------------
          |                Calculation Setup                |
           -------------------------------------------------

          program call               : xtb transplatin.xyz --gfn 2 --opt tight --parallel 1
          coordinate file            : transplatin.xyz
          omp threads                :                     1
          number of atoms            :                    11
          number of electrons        :                    40
          charge                     :                     0
          spin                       :                   0.0
          first test random number   :      0.15875674451026

   ID    Z sym.   atoms
    1   78 Pt     1
    2   17 Cl     2, 3
    3    7 N      4, 7
    4    1 H      5, 6, 8-11

           -------------------------------------------------
          |                 G F N 2 - x T B                 |
           -------------------------------------------------

        Reference                      10.1021/acs.jctc.8b01176
      * Hamiltonian:
        H0-scaling (s, p, d)           1.850000    2.230000    2.230000
        zeta-weighting                 0.500000
      * Dispersion:
        s8                             2.700000
        a1                             0.520000
        a2                             5.000000
        s9                             5.000000
      * Repulsion:
        kExp                           1.500000    1.000000
        rExp                           1.000000
      * Coulomb:
        alpha                          2.000000
        third order                    shell-resolved
        anisotropic                    true
        a3                             3.000000
        a5                             4.000000
        cn-shift                       1.200000
        cn-exp                         4.000000
        max-rad                        5.000000


          ...................................................
          :                      SETUP                      :
          :.................................................:
          :  # basis functions                  44          :
          :  # atomic orbitals                  41          :
          :  # shells                           19          :
          :  # electrons                        40          :
          :  max. iterations                   250          :
          :  Hamiltonian                  GFN2-xTB          :
          :  restarted?                      false          :
          :  GBSA solvation                  false          :
          :  PC potential                    false          :
          :  electronic temp.          300.0000000     K    :
          :  accuracy                    1.0000000          :
          :  -> integral cutoff          0.2500000E+02      :
          :  -> integral neglect         0.1000000E-07      :
          :  -> SCF convergence          0.1000000E-05 Eh   :
          :  -> wf. convergence          0.1000000E-03 e    :
          :  Broyden damping             0.4000000          :
          ...................................................

 iter      E             dE          RMSdq      gap      omega  full diag
   1    -22.5483053 -0.225483E+02  0.838E+00    3.06       0.0  T
   2    -22.7438455 -0.195540E+00  0.679E+00    3.36       1.0  T
   3    -22.7449509 -0.110545E-02  0.472E+00    3.29       1.0  T
   4    -22.7458988 -0.947837E-03  0.751E-01    3.12       1.0  T
   5    -22.7459217 -0.229446E-04  0.160E-01    3.11       1.0  T
   6    -22.7459260 -0.429172E-05  0.630E-02    3.11       1.0  T
   7    -22.7459275 -0.147662E-05  0.152E-02    3.11       2.0  T
   8    -22.7459279 -0.398035E-06  0.967E-03    3.11       3.1  T
   9    -22.7459282 -0.272234E-06  0.197E-03    3.11      15.3  T
  10    -22.7459282 -0.546029E-08  0.116E-03    3.11      26.0  T
  11    -22.7459282 -0.960188E-09  0.267E-04    3.11     112.9  T
  12    -22.7459282 -0.975113E-10  0.109E-04    3.11     276.2  T

   *** convergence criteria satisfied after 12 iterations ***

         #    Occupation            Energy/Eh            Energy/eV
      -------------------------------------------------------------
         1        2.0000           -1.0021884             -27.2709
       ...           ...                  ...                  ...
        14        2.0000           -0.3855854             -10.4923
        15        2.0000           -0.3852043             -10.4819
        16        2.0000           -0.3828128             -10.4169
        17        2.0000           -0.3772179             -10.2646
        18        2.0000           -0.3681370             -10.0175
        19        2.0000           -0.3571860              -9.7195
        20        2.0000           -0.3485016              -9.4832 (HOMO)
        21                         -0.2342398              -6.3740 (LUMO)
        22                         -0.0264198              -0.7189
        23                         -0.0042437              -0.1155
        24                          0.0278830               0.7587
        25                          0.0909425               2.4747
       ...                                ...                  ...
        41                          1.4026815              38.1689
      -------------------------------------------------------------
                  HL-Gap            0.1142618 Eh            3.1092 eV
             Fermi-level           -0.2913707 Eh           -7.9286 eV

 SCC (total)                   0 d,  0 h,  0 min,  0.013 sec
 SCC setup                      ...        0 min,  0.000 sec (  0.577%)
 Dispersion                     ...        0 min,  0.000 sec (  0.188%)
 classical contributions        ...        0 min,  0.000 sec (  0.092%)
 integral evaluation            ...        0 min,  0.002 sec ( 13.375%)
 iterations                     ...        0 min,  0.008 sec ( 63.169%)
 molecular gradient             ...        0 min,  0.003 sec ( 21.829%)
 printout                       ...        0 min,  0.000 sec (  0.707%)

         :::::::::::::::::::::::::::::::::::::::::::::::::::::
         ::                     SUMMARY                     ::
         :::::::::::::::::::::::::::::::::::::::::::::::::::::
         :: total energy             -22.614463078730 Eh    ::
         :: gradient norm              0.050779021196 Eh/a0 ::
         :: HOMO-LUMO gap              3.109223146528 eV    ::
         ::.................................................::
         :: SCC energy               -22.745928174446 Eh    ::
         :: -> isotropic ES            0.066224946018 Eh    ::
         :: -> anisotropic ES         -0.001661569430 Eh    ::
         :: -> anisotropic XC          0.005730944277 Eh    ::
         :: -> dispersion             -0.008366432012 Eh    ::
         :: repulsion energy           0.131445319538 Eh    ::
         :: add. restraining           0.000000000000 Eh    ::
         :: total charge               0.000000000000 e     ::
         :::::::::::::::::::::::::::::::::::::::::::::::::::::

      ----------------------------------------------------------- 
     |                   =====================                   |
     |                        A N C O P T                        |
     |                   =====================                   |
     |               Approximate Normal Coordinate               |
     |                Rational Function Optimizer                |
      ----------------------------------------------------------- 

          ...................................................
          :                      SETUP                      :
          :.................................................:
          :   optimization level             tight          :
          :   max. optcycles                   200          :
          :   ANC micro-cycles                  20          :
          :   degrees of freedom                27          :
          :.................................................:
          :   RF solver                   davidson          :
          :   write xtbopt.log                true          :
          :   linear?                        false          :
          :   energy convergence         0.1000000E-05 Eh   :
          :   grad. convergence          0.8000000E-03 Eh/α :
          :   maximium RF displ.         1.0000000          :
          :   Hlow (freq-cutoff)         0.1000000E-01      :
          :   Hmax (freq-cutoff)         5.0000000          :
          :   S6 in model hess.         20.0000000          :
          ...................................................

generating ANC from model Hessian ...
Using Lindh-Hessian (1995)
 Shifting diagonal of input Hessian by    1.0286497314334448E-002
 Lowest  eigenvalues of input Hessian
    0.010000    0.000000    0.000000    0.000000    0.000000    0.000000
    0.000000    0.011076    0.011535    0.011868    0.012198    0.014056
    0.016110    0.046648    0.048280    0.048461    0.051264    0.066768
 Highest eigenvalues
    0.949995    1.023235    1.457664    1.460213    1.460893    1.463365


........................................................................
.............................. CYCLE    1 ..............................
........................................................................
   1    -22.7459282 -0.227459E+02  0.407E-05    3.11       0.0  T
   2    -22.7459282 -0.217781E-11  0.324E-05    3.11     931.4  T
   3    -22.7459282 -0.100542E-11  0.236E-05    3.11    1278.8  T
     SCC iter.                  ...        0 min,  0.001 sec
     gradient                   ...        0 min,  0.003 sec
 * total energy  :   -22.6144631 Eh     change       -0.3869260E-10 Eh
   gradient norm :     0.0507785 Eh/α   predicted     0.0000000E+00 (-100.00%)
   displ. norm   :     0.2128326 α      lambda       -0.6619039E-02
   maximum displ.:     0.1467594 α      in ANC's #8, #12, #20, ...

........................................................................
.............................. CYCLE    2 ..............................
........................................................................
   1    -22.7303792 -0.227304E+02  0.805E-01    2.75       0.0  T
   2    -22.7304027 -0.234641E-04  0.372E-01    2.76       1.0  T
   3    -22.7304101 -0.744419E-05  0.535E-02    2.77       1.0  T
   4    -22.7304116 -0.144383E-05  0.304E-02    2.77       1.0  T
   5    -22.7304131 -0.150161E-05  0.128E-02    2.77       2.4  T
   6    -22.7304135 -0.478809E-06  0.549E-03    2.77       5.5  T
   7    -22.7304136 -0.463367E-07  0.103E-03    2.77      29.4  T
   8    -22.7304136 -0.257970E-09  0.333E-04    2.77      90.5  T
   9    -22.7304136 -0.211422E-10  0.841E-05    2.77     358.5  T
     SCC iter.                  ...        0 min,  0.003 sec
     gradient                   ...        0 min,  0.004 sec
 * total energy  :   -22.6182531 Eh     change       -0.3790061E-02 Eh
   gradient norm :     0.0106663 Eh/α   predicted    -0.3459432E-02 (  -8.72%)
   displ. norm   :     0.1269188 α      lambda       -0.9058296E-03
   maximum displ.:     0.0970095 α      in ANC's #8, #12, #3, ...

........................................................................
.............................. CYCLE    3 ..............................
........................................................................
   1    -22.7252598 -0.227253E+02  0.482E-01    2.73       0.0  T
   2    -22.7252838 -0.239624E-04  0.154E-01    2.73       1.0  T
   3    -22.7252895 -0.575141E-05  0.427E-02    2.73       1.0  T
   4    -22.7252934 -0.387390E-05  0.278E-02    2.73       1.1  T
   5    -22.7252954 -0.204927E-05  0.935E-03    2.73       3.2  T
   6    -22.7252956 -0.156361E-06  0.290E-03    2.73      10.4  T
   7    -22.7252956 -0.373031E-08  0.103E-03    2.73      29.2  T
   8    -22.7252956 -0.714603E-09  0.171E-04    2.73     176.8  T
   9    -22.7252956 -0.138591E-10  0.871E-05    2.73     346.3  T
     SCC iter.                  ...        0 min,  0.003 sec
     gradient                   ...        0 min,  0.003 sec
 * total energy  :   -22.6187224 Eh     change       -0.4692366E-03 Eh
   gradient norm :     0.0042378 Eh/α   predicted    -0.4602121E-03 (  -1.92%)
   displ. norm   :     0.0481452 α      lambda       -0.9417308E-04
   maximum displ.:     0.0392865 α      in ANC's #8, #9, #3, ...

........................................................................
.............................. CYCLE    4 ..............................
........................................................................
   1    -22.7255315 -0.227255E+02  0.799E-02    2.67       0.0  T
   2    -22.7255318 -0.268982E-06  0.422E-02    2.67       1.0  T
   3    -22.7255319 -0.984977E-07  0.532E-03    2.67       5.7  T
   4    -22.7255319 -0.117841E-07  0.250E-03    2.67      12.0  T
   5    -22.7255319 -0.526500E-08  0.157E-03    2.67      19.2  T
   6    -22.7255319 -0.796967E-08  0.664E-04    2.67      45.4  T
   7    -22.7255319 -0.150538E-08  0.115E-04    2.67     261.2  T
     SCC iter.                  ...        0 min,  0.002 sec
     gradient                   ...        0 min,  0.003 sec
 * total energy  :   -22.6187870 Eh     change       -0.6460203E-04 Eh
   gradient norm :     0.0025236 Eh/α   predicted    -0.4719747E-04 ( -26.94%)
   displ. norm   :     0.0368234 α      lambda       -0.3346865E-04
   maximum displ.:     0.0244736 α      in ANC's #8, #9, #3, ...

........................................................................
.............................. CYCLE    5 ..............................
........................................................................
   1    -22.7262644 -0.227263E+02  0.330E-02    2.65       0.0  T
   2    -22.7262648 -0.324668E-06  0.179E-02    2.65       1.7  T
   3    -22.7262648 -0.769052E-07  0.596E-03    2.65       5.1  T
   4    -22.7262649 -0.197227E-07  0.339E-03    2.65       8.9  T
   5    -22.7262649 -0.219727E-07  0.190E-03    2.65      15.9  T
   6    -22.7262649 -0.138410E-07  0.729E-04    2.65      41.3  T
   7    -22.7262649 -0.501299E-09  0.147E-04    2.65     205.5  T
     SCC iter.                  ...        0 min,  0.003 sec
     gradient                   ...        0 min,  0.003 sec
 * total energy  :   -22.6188058 Eh     change       -0.1879574E-04 Eh
   gradient norm :     0.0004403 Eh/α   predicted    -0.1675761E-04 ( -10.84%)
   displ. norm   :     0.0165959 α      lambda       -0.2422697E-05
   maximum displ.:     0.0126048 α      in ANC's #3, #9, #22, ...

........................................................................
.............................. CYCLE    6 ..............................
........................................................................
   1    -22.7265145 -0.227265E+02  0.122E-02    2.64       0.0  T
   2    -22.7265145 -0.528806E-07  0.580E-03    2.64       5.2  T
   3    -22.7265145 -0.241657E-07  0.248E-03    2.64      12.2  T
   4    -22.7265146 -0.101387E-07  0.193E-03    2.64      15.6  T
   5    -22.7265146 -0.151154E-07  0.907E-04    2.64      33.2  T
   6    -22.7265146 -0.218701E-08  0.881E-05    2.64     342.3  T
     SCC iter.                  ...        0 min,  0.002 sec
     gradient                   ...        0 min,  0.003 sec
 * total energy  :   -22.6188081 Eh     change       -0.2299285E-05 Eh
   gradient norm :     0.0004039 Eh/α   predicted    -0.1212004E-05 ( -47.29%)
   displ. norm   :     0.0141527 α      lambda       -0.1262690E-05
   maximum displ.:     0.0109991 α      in ANC's #3, #9, #8, ...

........................................................................
.............................. CYCLE    7 ..............................
........................................................................
   1    -22.7264453 -0.227264E+02  0.112E-02    2.65       0.0  T
   2    -22.7264454 -0.351595E-07  0.483E-03    2.65       6.2  T
   3    -22.7264454 -0.174058E-07  0.248E-03    2.65      12.1  T
   4    -22.7264454 -0.129839E-07  0.151E-03    2.65      20.0  T
   5    -22.7264454 -0.950312E-08  0.654E-04    2.65      46.1  T
   6    -22.7264454 -0.900933E-09  0.182E-04    2.65     165.9  T
     SCC iter.                  ...        0 min,  0.003 sec
     gradient                   ...        0 min,  0.003 sec
 * total energy  :   -22.6188092 Eh     change       -0.1111441E-05 Eh
   gradient norm :     0.0001510 Eh/α   predicted    -0.6307225E-06 ( -43.25%)
   displ. norm   :     0.0032056 α      lambda       -0.6629426E-07
   maximum displ.:     0.0028448 α      in ANC's #3, #9, #8, ...

........................................................................
.............................. CYCLE    8 ..............................
........................................................................
   1    -22.7263927 -0.227264E+02  0.264E-03    2.65       0.0  T
   2    -22.7263927 -0.170184E-08  0.113E-03    2.65      26.6  T
   3    -22.7263927 -0.911619E-09  0.555E-04    2.65      54.4  T
   4    -22.7263927 -0.720661E-09  0.311E-04    2.65      97.1  T
     SCC iter.                  ...        0 min,  0.001 sec
     gradient                   ...        0 min,  0.003 sec
 * total energy  :   -22.6188092 Eh     change       -0.4969881E-07 Eh
   gradient norm :     0.0000266 Eh/α   predicted    -0.3271732E-07 ( -34.17%)
   displ. norm   :     0.0002456 α      lambda       -0.5443737E-08
   maximum displ.:     0.0001665 α      in ANC's #3, #8, #17, ...

   *** GEOMETRY OPTIMIZATION CONVERGED AFTER 8 ITERATIONS ***

------------------------------------------------------------------------
 total energy gain   :        -0.0043462 Eh       -2.7273 kcal/mol
 total RMSD          :         0.1139347 a0        0.0603 Å
 total power (kW/mol):        -1.4263540 (step) -193.8966 (real)
------------------------------------------------------------------------

 ANCopt (total)                0 d,  0 h,  0 min,  0.059 sec
 optimizer setup                ...        0 min,  0.000 sec (  0.066%)
 model hessian                  ...        0 min,  0.001 sec (  0.876%)
 ANC generation                 ...        0 min,  0.000 sec (  0.281%)
 coordinate transformation      ...        0 min,  0.000 sec (  0.036%)
 single point calculation       ...        0 min,  0.057 sec ( 96.780%)
 optimization log               ...        0 min,  0.000 sec (  0.726%)
 hessian update                 ...        0 min,  0.000 sec (  0.053%)
 rational function              ...        0 min,  0.000 sec (  0.747%)

================
 final structure:
================
11
 xtb: 6.4.0 (4cdc11a)
Pt       -0.00000007856756   -0.00000002206477   -0.00000010868674
Cl        2.30229939955498    0.04263273027050    0.00000004389420
Cl       -2.30229951004775   -0.04263257914051   -0.00000002612054
N        -0.00560118815380   -2.04618270334684    0.00000000203806
H         0.47593659628961   -2.39843215014774   -0.82958448178644
H         0.47593664765795   -2.39843209598722    0.82958447835953
N         0.00560123043648    2.04618266773069    0.00000001028515
H        -0.47593659397304    2.39843212198496   -0.82958444854776
H        -0.47593655339653    2.39843208868331    0.82958450511095
H         0.97934353088146    2.36213121840266   -0.00000001712825
H        -0.97934348068181   -2.36213127638504    0.00000004258183

 Bond Distances (Angstroems)
 ---------------------------
Pt1-Cl2=2.3027       Pt1-Cl3=2.3027       Pt1-N4=2.0462        Pt1-N7=2.0462        Cl2-Pt1=2.3027       Cl3-Pt1=2.3027       
N4-Pt1=2.0462        N4-H5=1.0218         N4-H6=1.0218         N4-H11=1.0237        H5-N4=1.0218         H6-N4=1.0218         
N7-Pt1=2.0462        N7-H8=1.0218         N7-H9=1.0218         N7-H10=1.0237        H8-N7=1.0218         H9-N7=1.0218         
H10-N7=1.0237        H11-N4=1.0237        
 N  H  Rav=1.0225 sigma=0.0009  Rmin=1.0218  Rmax=1.0237     6
 Pt N  Rav=2.0462 sigma=0.0000  Rmin=2.0462  Rmax=2.0462     2
 Pt Cl Rav=2.3027 sigma=0.0000  Rmin=2.3027  Rmax=2.3027     2

 selected bond angles (degree)
 --------------------
Cl3-Pt1-Cl2=180.00             N4-Pt1-Cl2= 91.22              N4-Pt1-Cl3= 88.78              N7-Pt1-Cl2= 88.78              
N7-Pt1-Cl3= 91.22              N7-Pt1-N4=180.00               H5-N4-Pt1=110.09               H6-N4-Pt1=110.09               
H6-N4-H5=108.55                H11-N4-Pt1=108.13              H11-N4-H5=109.99               H11-N4-H6=109.99               
H8-N7-Pt1=110.09               H9-N7-Pt1=110.09               H9-N7-H8=108.55                H10-N7-Pt1=108.13              
H10-N7-H8=109.99               H10-N7-H9=109.99               

 selected dihedral angles (degree)
 ---------------------------------
H5-N4-Pt1-Cl2=300.18          H5-N4-Pt1-Cl3=120.18          H5-N4-Pt1-N7=  0.00           H6-N4-Pt1-Cl2= 59.82          
H6-N4-Pt1-Cl3=239.82          H6-N4-Pt1-N7=  0.00           H11-N4-Pt1-Cl2=180.00         H11-N4-Pt1-Cl3=  0.00         
H11-N4-Pt1-N7=  0.00          H8-N7-Pt1-Cl2=120.18          H8-N7-Pt1-Cl3=300.18          H8-N7-Pt1-N4=  0.00           
H9-N7-Pt1-Cl2=239.82          H9-N7-Pt1-Cl3= 59.82          H9-N7-Pt1-N4=  0.00           H10-N7-Pt1-Cl2=  0.00         
H10-N7-Pt1-Cl3=180.00         H10-N7-Pt1-N4=  0.00          
           -------------------------------------------------
          |                Final Singlepoint                |
           -------------------------------------------------

          ...................................................
          :                      SETUP                      :
          :.................................................:
          :  # basis functions                  44          :
          :  # atomic orbitals                  41          :
          :  # shells                           19          :
          :  # electrons                        40          :
          :  max. iterations                   250          :
          :  Hamiltonian                  GFN2-xTB          :
          :  restarted?                      false          :
          :  GBSA solvation                  false          :
          :  PC potential                    false          :
          :  electronic temp.          300.0000000     K    :
          :  accuracy                    1.0000000          :
          :  -> integral cutoff          0.2500000E+02      :
          :  -> integral neglect         0.1000000E-07      :
          :  -> SCF convergence          0.1000000E-05 Eh   :
          :  -> wf. convergence          0.1000000E-03 e    :
          :  Broyden damping             0.4000000          :
          ...................................................

 iter      E             dE          RMSdq      gap      omega  full diag
   1    -22.7263927 -0.227264E+02  0.138E-04    2.65       0.0  T
   2    -22.7263927 -0.164562E-10  0.104E-04    2.65     289.6  T
   3    -22.7263927 -0.265352E-10  0.558E-05    2.65     540.2  T

   *** convergence criteria satisfied after 3 iterations ***

         #    Occupation            Energy/Eh            Energy/eV
      -------------------------------------------------------------
         1        2.0000           -1.0005400             -27.2261
       ...           ...                  ...                  ...
        14        2.0000           -0.3848278             -10.4717
        15        2.0000           -0.3837594             -10.4426
        16        2.0000           -0.3812763             -10.3751
        17        2.0000           -0.3768120             -10.2536
        18        2.0000           -0.3680847             -10.0161
        19        2.0000           -0.3570723              -9.7164
        20        2.0000           -0.3491204              -9.5000 (HOMO)
        21                         -0.2518019              -6.8519 (LUMO)
        22                         -0.0503104              -1.3690
        23                         -0.0352038              -0.9579
        24                          0.0191688               0.5216
        25                          0.0881353               2.3983
       ...                                ...                  ...
        41                          1.2601380              34.2901
      -------------------------------------------------------------
                  HL-Gap            0.0973185 Eh            2.6482 eV
             Fermi-level           -0.3004611 Eh           -8.1760 eV

 SCC (total)                   0 d,  0 h,  0 min,  0.006 sec
 SCC setup                      ...        0 min,  0.000 sec (  0.734%)
 Dispersion                     ...        0 min,  0.000 sec (  0.301%)
 classical contributions        ...        0 min,  0.000 sec (  0.138%)
 integral evaluation            ...        0 min,  0.002 sec ( 28.547%)
 iterations                     ...        0 min,  0.001 sec ( 17.379%)
 molecular gradient             ...        0 min,  0.003 sec ( 51.352%)
 printout                       ...        0 min,  0.000 sec (  1.447%)

         :::::::::::::::::::::::::::::::::::::::::::::::::::::
         ::                     SUMMARY                     ::
         :::::::::::::::::::::::::::::::::::::::::::::::::::::
         :: total energy             -22.618809235400 Eh    ::
         :: gradient norm              0.000025759729 Eh/a0 ::
         :: HOMO-LUMO gap              2.648170975208 eV    ::
         ::.................................................::
         :: SCC energy               -22.726392666853 Eh    ::
         :: -> isotropic ES            0.066397421906 Eh    ::
         :: -> anisotropic ES         -0.002051894545 Eh    ::
         :: -> anisotropic XC          0.005914005559 Eh    ::
         :: -> dispersion             -0.008256885667 Eh    ::
         :: repulsion energy           0.107561681717 Eh    ::
         :: add. restraining           0.000000000000 Eh    ::
         :: total charge              -0.000000000000 e     ::
         :::::::::::::::::::::::::::::::::::::::::::::::::::::

           -------------------------------------------------
          |                Property Printout                |
           -------------------------------------------------

    * Orbital Energies and Occupations

         #    Occupation            Energy/Eh            Energy/eV
      -------------------------------------------------------------
         1        2.0000           -1.0005400             -27.2261
       ...           ...                  ...                  ...
         8        2.0000           -0.5677740             -15.4499
         9        2.0000           -0.5362815             -14.5930
        10        2.0000           -0.4861149             -13.2279
        11        2.0000           -0.4242355             -11.5440
        12        2.0000           -0.3899076             -10.6099
        13        2.0000           -0.3867305             -10.5235
        14        2.0000           -0.3848278             -10.4717
        15        2.0000           -0.3837594             -10.4426
        16        2.0000           -0.3812763             -10.3751
        17        2.0000           -0.3768120             -10.2536
        18        2.0000           -0.3680847             -10.0161
        19        2.0000           -0.3570723              -9.7164
        20        2.0000           -0.3491204              -9.5000 (HOMO)
        21                         -0.2518019              -6.8519 (LUMO)
        22                         -0.0503104              -1.3690
        23                         -0.0352038              -0.9579
        24                          0.0191688               0.5216
        25                          0.0881353               2.3983
        26                          0.0918397               2.4991
        27                          0.0944623               2.5704
        28                          0.0946892               2.5766
        29                          0.0948990               2.5823
        30                          0.0958067               2.6070
        31                          0.0980786               2.6689
       ...                                ...                  ...
        41                          1.2601380              34.2901
      -------------------------------------------------------------
                  HL-Gap            0.0973185 Eh            2.6482 eV
             Fermi-level           -0.3004611 Eh           -8.1760 eV

     #   Z          covCN         q      C6AA      α(0)
     1  78 Pt       3.339    -0.021   345.950    35.046
     2  17 Cl       0.834    -0.450   113.890    16.326
     3  17 Cl       0.834    -0.450   113.890    16.326
     4   7 N        3.414    -0.226    25.922     7.562
     5   1 H        0.860     0.226     0.981     1.552
     6   1 H        0.860     0.226     0.981     1.552
     7   7 N        3.414    -0.226    25.922     7.562
     8   1 H        0.860     0.226     0.981     1.552
     9   1 H        0.860     0.226     0.981     1.552
    10   1 H        0.860     0.234     0.948     1.525
    11   1 H        0.860     0.234     0.948     1.525

 Mol. C6AA /au·bohr⁶  :       3120.605391
 Mol. C8AA /au·bohr⁸  :     155746.577403
 Mol. α(0) /au        :         92.078187


Wiberg/Mayer (AO) data.
largest (>0.10) Wiberg bond orders for each atom

 ---------------------------------------------------------------------------
     #   Z sym  total        # sym  WBO       # sym  WBO       # sym  WBO
 ---------------------------------------------------------------------------
     1  78 Pt   3.098 --     3 Cl   0.804     2 Cl   0.804     7 N    0.651
                             4 N    0.651
     2  17 Cl   0.944 --     1 Pt   0.804
     3  17 Cl   0.944 --     1 Pt   0.804
     4   7 N    3.489 --     6 H    0.914     5 H    0.914    11 H    0.911
                             1 Pt   0.651
     5   1 H    0.949 --     4 N    0.914
     6   1 H    0.949 --     4 N    0.914
     7   7 N    3.489 --     9 H    0.914     8 H    0.914    10 H    0.911
                             1 Pt   0.651
     8   1 H    0.949 --     7 N    0.914
     9   1 H    0.949 --     7 N    0.914
    10   1 H    0.945 --     7 N    0.911
    11   1 H    0.945 --     4 N    0.911
 ---------------------------------------------------------------------------

Topologies differ in total number of bonds
Writing topology from bond orders to xtbtopo.mol

molecular dipole:
                 x           y           z       tot (Debye)
 q only:        0.000      -0.000       0.000
   full:        0.000      -0.000       0.000       0.000
molecular quadrupole (traceless):
                xx          xy          yy          xz          yz          zz
 q only:      -26.415      -0.239      27.416      -0.000      -0.000      -1.001
  q+dip:      -27.980      -0.908      29.463      -0.000      -0.000      -1.483
   full:      -27.345      -0.844      29.828      -0.000      -0.000      -2.483

           -------------------------------------------------
          |                Geometry Summary                 |
           -------------------------------------------------

      molecular mass/u    :      300.0513829
   center of mass at/Å    :       -0.0000001       0.0000000      -0.0000001
  moments of inertia/u·Å² :        0.1543951E+03   0.3817021E+03   0.5305478E+03
rotational constants/cm⁻¹ :        0.1091850E+00   0.4416436E-01   0.3177401E-01

 * 10 selected distances

     #   Z          #   Z                                           value/Å
     1  78 Pt       2  17 Cl                                      2.3026942 (max)
     1  78 Pt       3  17 Cl                                      2.3026941
     1  78 Pt       4   7 N                                       2.0461903
     4   7 N        5   1 H                                       1.0218457
     4   7 N        6   1 H                                       1.0218457 (min)
     1  78 Pt       7   7 N                                       2.0461904
     7   7 N        8   1 H                                       1.0218457
     7   7 N        9   1 H                                       1.0218457
     7   7 N       10   1 H                                       1.0237175
     4   7 N       11   1 H                                       1.0237175

 * 3 distinct bonds (by element types)

   Z      Z             #   av. dist./Å        max./Å        min./Å
   1 H    7 N           6     1.0224697     1.0237175     1.0218457
   7 N   78 Pt          2     2.0461904     2.0461904     2.0461903
  17 Cl  78 Pt          2     2.3026941     2.3026942     2.3026941


optimized geometry written to: xtbopt.xyz


           -------------------------------------------------
          | TOTAL ENERGY              -22.618809235400 Eh   |
          | GRADIENT NORM               0.000025759729 Eh/α |
          | HOMO-LUMO GAP               2.648170975208 eV   |
           -------------------------------------------------

------------------------------------------------------------------------
 * finished run on 2021/06/07 at 16:02:12.750     
------------------------------------------------------------------------
 total:
 * wall-time:     0 d,  0 h,  0 min,  0.084 sec
 *  cpu-time:     0 d,  0 h,  0 min,  0.673 sec
 * ratio c/w:     7.999 speedup
 SCF:
 * wall-time:     0 d,  0 h,  0 min,  0.013 sec
 *  cpu-time:     0 d,  0 h,  0 min,  0.104 sec
 * ratio c/w:     7.996 speedup
 ANC optimizer:
 * wall-time:     0 d,  0 h,  0 min,  0.065 sec
 *  cpu-time:     0 d,  0 h,  0 min,  0.522 sec
 * ratio c/w:     8.000 speedup

