 argument  1 = transplatin.in



============================== echo of input deck ==============================
# echo input file to output
echo
title "Transplatin"
memory total 4 gb
scratch_dir /tmp

# Charge of the system
charge 0

# XYZ coordinates in Angstrom units
# Automatic symmetry detection enabled (default tol 0.01). Disable with noautosym.
geometry units angstroms autosym 0.1
 Pt                 0.00000000    0.00000000    0.00000000
 Cl                 2.27999997   -0.00036653    0.00000000
 Cl                -2.27999997    0.00036653    0.00000000
 N                 -0.00031991   -1.98999997    0.00000000
 H                  0.46944690   -2.32340883   -0.81740913
 H                  0.46944690   -2.32340883    0.81740913
 N                  0.00031991    1.98999997    0.00000000
 H                 -0.46944690    2.32340883   -0.81740913
 H                 -0.46944690    2.32340883    0.81740913
 H                  0.94318252    2.32318174    0.00000000
 H                 -0.94318252   -2.32318174    0.00000000
end

dft
  # Exchange-correlation functional
  xc pbe0
  # Semidirect SCF. Cache integrals in memory, but do not use disk
  # 130 megawords is ~1000 megabytes for 64-bit machines
  semidirect memsize 130000000 filesize 0
  # For completely direct SCF without caching, use
  #direct

  # Spin multiplicity 2S + 1, where S = 0, 1/2, 1, 3/2, ...
  mult 1
  # For open-shell singlet calculation, add
  #odft

  # Reduce output during geometry optimization
  noprint "final vectors analysis"

  # Increase the number of SCF iterations
  iterations 100
end

# Basis set definitions
basis spherical
  * library def2-tzvp
end
ecp
  Pt library def2-ecp
end

# Options for the geometry optimizer
driver
  # Max 100 optimization steps
  maxiter 100
  # Print XYZ coordinates of each step
  xyz
end

# Optimize geometry
task dft optimize

================================================================================


                                         
                                         


             Northwest Computational Chemistry Package (NWChem) 7.0.2
             --------------------------------------------------------


                    Environmental Molecular Sciences Laboratory
                       Pacific Northwest National Laboratory
                                Richland, WA 99352

                              Copyright (c) 1994-2020
                       Pacific Northwest National Laboratory
                            Battelle Memorial Institute

             NWChem is an open-source computational chemistry package
                        distributed under the terms of the
                      Educational Community License (ECL) 2.0
             A copy of the license is included with this distribution
                              in the LICENSE.TXT file

                                  ACKNOWLEDGMENT
                                  --------------

            This software and its documentation were developed at the
            EMSL at Pacific Northwest National Laboratory, a multiprogram
            national laboratory, operated for the U.S. Department of Energy
            by Battelle under Contract Number DE-AC05-76RL01830. Support
            for this work was provided by the Department of Energy Office
            of Biological and Environmental Research, Office of Basic
            Energy Sciences, and the Office of Advanced Scientific Computing.


           Job information
           ---------------

    hostname        = AJK-ZB-2021
    program         = nwchem
    date            = Fri Jun 25 23:20:20 2021

    compiled        = Thu_May_20_07:57:16_2021
    source          = /home/conda/feedstock_root/build_artifacts/nwchem_1621493927360/work
    nwchem branch   = 7.0.2
    nwchem revision = d613826
    ga revision     = 5.7.2
    use scalapack   = T
    input           = transplatin.in
    prefix          = transplatin.
    data base       = ./transplatin.db
    status          = startup
    nproc           =        1
    time left       =     -1s



           Memory information
           ------------------

    heap     =  134217724 doubles =   1024.0 Mbytes
    stack    =  134217729 doubles =   1024.0 Mbytes
    global   =  268435456 doubles =   2048.0 Mbytes (distinct from heap & stack)
    total    =  536870909 doubles =   4096.0 Mbytes
    verify   = yes
    hardfail = no 


           Directory information
           ---------------------

  0 permanent = .
  0 scratch   = /tmp




                                NWChem Input Module
                                -------------------


                                    Transplatin
                                    -----------

 Scaling coordinates for geometry "geometry" by  1.889725989
 (inverse scale =  0.529177249)

 C2H symmetry detected

          ------
          auto-z
          ------
  no constraints, skipping    0.0000000000000000     
  no constraints, skipping    0.0000000000000000     


                             Geometry "geometry" -> ""
                             -------------------------

 Output coordinates in angstroms (scale by  1.889725989 to convert to a.u.)

  No.       Tag          Charge          X              Y              Z
 ---- ---------------- ---------- -------------- -------------- --------------
    1 Pt                  78.0000     0.00000000     0.00000000     0.00000000
    2 Cl                  17.0000    -0.00015190    -2.27999999     0.00000000
    3 Cl                  17.0000     0.00015190     2.27999999     0.00000000
    4 N                    7.0000    -1.98999999     0.00013258     0.00000000
    5 H                    1.0000    -2.32336463    -0.46966561    -0.81740913
    6 H                    1.0000    -2.32336463    -0.46966561     0.81740913
    7 N                    7.0000     1.98999999    -0.00013258     0.00000000
    8 H                    1.0000     2.32336463     0.46966561    -0.81740913
    9 H                    1.0000     2.32336463     0.46966561     0.81740913
   10 H                    1.0000     2.32327052    -0.94296382     0.00000000
   11 H                    1.0000    -2.32327052     0.94296382     0.00000000

      Atomic Mass 
      ----------- 

      Pt               194.964800
      Cl                34.968850
      N                 14.003070
      H                  1.007825


 Effective nuclear repulsion energy (a.u.)    1190.9076650550

            Nuclear Dipole moment (a.u.) 
            ----------------------------
        X                 Y               Z
 ---------------- ---------------- ----------------
     0.0000000000     0.0000000000     0.0000000000

      Symmetry information
      --------------------

 Group name             C2h       
 Group number             21
 Group order               4
 No. of unique centers     5

      Symmetry unique atoms

     1    2    4    5   10



                                Z-matrix (autoz)
                                -------- 

 Units are Angstrom for bonds and degrees for angles

      Type          Name      I     J     K     L     M      Value
      ----------- --------  ----- ----- ----- ----- ----- ----------
    1 Stretch                  1     2                       2.28000
    2 Stretch                  1     3                       2.28000
    3 Stretch                  1     4                       1.99000
    4 Stretch                  1     7                       1.99000
    5 Stretch                  4     5                       1.00000
    6 Stretch                  4     6                       1.00000
    7 Stretch                  4    11                       1.00000
    8 Stretch                  7     8                       1.00000
    9 Stretch                  7     9                       1.00000
   10 Stretch                  7    10                       1.00000
   11 Bend                     1     4     5               109.47122
   12 Bend                     1     4     6               109.47122
   13 Bend                     1     4    11               109.47122
   14 Bend                     1     7     8               109.47122
   15 Bend                     1     7     9               109.47122
   16 Bend                     1     7    10               109.47122
   17 Bend                     2     1     4                90.00000
   18 Bend                     2     1     7                90.00000
   19 Bend                     3     1     4                90.00000
   20 Bend                     3     1     7                90.00000
   21 Bend                     5     4     6               109.65254
   22 Bend                     5     4    11               109.38048
   23 Bend                     6     4    11               109.38048
   24 Bend                     8     7     9               109.65254
   25 Bend                     8     7    10               109.38048
   26 Bend                     9     7    10               109.38048
   27 Torsion                  2     1     4     5         -60.11110
   28 Torsion                  2     1     4     6          60.11110
   29 Torsion                  2     1     4    11         180.00000
   30 Torsion                  2     1     7     8         119.88890
   31 Torsion                  2     1     7     9        -119.88890
   32 Torsion                  2     1     7    10           0.00000
   33 Torsion                  3     1     4     5         119.88890
   34 Torsion                  3     1     4     6        -119.88890
   35 Torsion                  3     1     4    11          -0.00000
   36 Torsion                  3     1     7     8         -60.11110
   37 Torsion                  3     1     7     9          60.11110
   38 Torsion                  3     1     7    10         180.00000
   39 Torsion                  5     4     7     8          59.77780
   40 Torsion                  5     4     7     9         180.00000
   41 Torsion                  5     4     7    10         -60.11110
   42 Torsion                  4     5     1     7        -180.00000
   43 Torsion                  6     4     7     8         180.00000
   44 Torsion                  6     4     7     9         -59.77780
   45 Torsion                  6     4     7    10          60.11110
   46 Torsion                  4     6     1     7         180.00000
   47 Torsion                  8     7     4    11         -60.11110
   48 Torsion                  4     1     8     7        -180.00000
   49 Torsion                  9     7     4    11          60.11110
   50 Torsion                  4     1     9     7         180.00000
   51 Torsion                 10     7     4    11         180.00000
   52 Torsion                  4     1    10     7         180.00000
   53 Torsion                  4    11     1     7         180.00000


            XYZ format geometry
            -------------------
    11
 geometry
 Pt                    0.00000000     0.00000000     0.00000000
 Cl                   -0.00015190    -2.27999999     0.00000000
 Cl                    0.00015190     2.27999999     0.00000000
 N                    -1.98999999     0.00013258     0.00000000
 H                    -2.32336463    -0.46966561    -0.81740913
 H                    -2.32336463    -0.46966561     0.81740913
 N                     1.98999999    -0.00013258     0.00000000
 H                     2.32336463     0.46966561    -0.81740913
 H                     2.32336463     0.46966561     0.81740913
 H                     2.32327052    -0.94296382     0.00000000
 H                    -2.32327052     0.94296382     0.00000000

 ==============================================================================
                                internuclear distances
 ------------------------------------------------------------------------------
       center one      |      center two      | atomic units |  angstroms
 ------------------------------------------------------------------------------
    2 Cl               |   1 Pt               |     4.30858  |     2.28000
    3 Cl               |   1 Pt               |     4.30858  |     2.28000
    4 N                |   1 Pt               |     3.76055  |     1.99000
    5 H                |   4 N                |     1.88973  |     1.00000
    6 H                |   4 N                |     1.88973  |     1.00000
    7 N                |   1 Pt               |     3.76055  |     1.99000
    8 H                |   7 N                |     1.88973  |     1.00000
    9 H                |   7 N                |     1.88973  |     1.00000
   10 H                |   7 N                |     1.88973  |     1.00000
   11 H                |   4 N                |     1.88973  |     1.00000
 ------------------------------------------------------------------------------
                         number of included internuclear distances:         10
 ==============================================================================



 ==============================================================================
                                 internuclear angles
 ------------------------------------------------------------------------------
        center 1       |       center 2       |       center 3       |  degrees
 ------------------------------------------------------------------------------
    2 Cl               |   1 Pt               |   3 Cl               |   180.00
    2 Cl               |   1 Pt               |   4 N                |    90.00
    2 Cl               |   1 Pt               |   7 N                |    90.00
    3 Cl               |   1 Pt               |   4 N                |    90.00
    3 Cl               |   1 Pt               |   7 N                |    90.00
    4 N                |   1 Pt               |   7 N                |   180.00
    1 Pt               |   4 N                |   5 H                |   109.47
    1 Pt               |   4 N                |   6 H                |   109.47
    1 Pt               |   4 N                |  11 H                |   109.47
    5 H                |   4 N                |   6 H                |   109.65
    5 H                |   4 N                |  11 H                |   109.38
    6 H                |   4 N                |  11 H                |   109.38
    1 Pt               |   7 N                |   8 H                |   109.47
    1 Pt               |   7 N                |   9 H                |   109.47
    1 Pt               |   7 N                |  10 H                |   109.47
    8 H                |   7 N                |   9 H                |   109.65
    8 H                |   7 N                |  10 H                |   109.38
    9 H                |   7 N                |  10 H                |   109.38
 ------------------------------------------------------------------------------
                            number of included internuclear angles:         18
 ==============================================================================



  library name resolved from: environment
  library file name is: </home/antti/miniconda3/envs/nwchem/share/nwchem/libraries/>
  


 Summary of "ao basis" -> "" (spherical)
 ------------------------------------------------------------------------------
       Tag                 Description            Shells   Functions and Types
 ---------------- ------------------------------  ------  ---------------------
 *                         def2-tzvp                  on all atoms 


  library name resolved from: environment
  library file name is: </home/antti/miniconda3/envs/nwchem/share/nwchem/libraries/>
  
                 ECP       "ecp basis" -> "" (cartesian)
                -----
  Pt (Platinum) Replaces    60 electrons
  --------------------------------------
             Channel    R-exponent     Exponent     Coefficients
         ------------ ---------------------------------------------------------
  1 U L       Both         2.00        3.309569      24.314376

  2 U-s       Both         2.00       13.428651     579.223861
  2 U-s       Both         2.00        6.714326      29.669491
  2 U-s       Both         2.00        3.309569     -24.314376

  3 U-p       Both         2.00       10.365944     280.860774
  3 U-p       Both         2.00        5.182972      26.745382
  3 U-p       Both         2.00        3.309569     -24.314376

  4 U-d       Both         2.00        7.600479     120.396444
  4 U-d       Both         2.00        3.800240      15.810921
  4 U-d       Both         2.00        3.309569     -24.314376



                           NWChem Geometry Optimization
                           ----------------------------




                                    Transplatin


  no constraints, skipping    0.0000000000000000     
 maximum gradient threshold         (gmax) =   0.000450
 rms gradient threshold             (grms) =   0.000300
 maximum cartesian step threshold   (xmax) =   0.001800
 rms cartesian step threshold       (xrms) =   0.001200
 fixed trust radius                (trust) =   0.300000
 maximum step size to saddle      (sadstp) =   0.100000
 energy precision                  (eprec) =   5.0D-06
 maximum number of steps          (nptopt) =  100
 initial hessian option           (inhess) =    0
 line search option               (linopt) =    1
 hessian update option            (modupd) =    1
 saddle point option              (modsad) =    0
 initial eigen-mode to follow     (moddir) =    0
 initial variable to follow       (vardir) =    0
 follow first negative mode     (firstneg) =    T
 apply conjugacy                    (opcg) =    F
 source of zmatrix                         =   autoz   


          -------------------
          Energy Minimization
          -------------------


 Names of Z-matrix variables 
    1              2              3              4              5         
    6              7              8              9             10         
   11             12             13             14             15         
   16             17             18             19             20         
   21             22             23             24             25         
   26             27             28             29             30         
   31             32             33             34             35         
   36             37             38             39             40         
   41             42             43             44             45         
   46             47             48             49             50         
   51             52             53         

 Variables with the same non-blank name are constrained to be equal


 Using diagonal initial Hessian 
 Scaling for Hessian diagonals: bonds = 1.00  angles = 0.25  torsions = 0.10

          --------
          Step   0
          --------


                         Geometry "geometry" -> "geometry"
                         ---------------------------------

 Output coordinates in angstroms (scale by  1.889725989 to convert to a.u.)

  No.       Tag          Charge          X              Y              Z
 ---- ---------------- ---------- -------------- -------------- --------------
    1 Pt                  78.0000     0.00000000     0.00000000     0.00000000
    2 Cl                  17.0000    -0.00015190    -2.27999999     0.00000000
    3 Cl                  17.0000     0.00015190     2.27999999     0.00000000
    4 N                    7.0000    -1.98999999     0.00013258     0.00000000
    5 H                    1.0000    -2.32336463    -0.46966561    -0.81740913
    6 H                    1.0000    -2.32336463    -0.46966561     0.81740913
    7 N                    7.0000     1.98999999    -0.00013258     0.00000000
    8 H                    1.0000     2.32336463     0.46966561    -0.81740913
    9 H                    1.0000     2.32336463     0.46966561     0.81740913
   10 H                    1.0000     2.32327052    -0.94296382     0.00000000
   11 H                    1.0000    -2.32327052     0.94296382     0.00000000

      Atomic Mass 
      ----------- 

      Pt               194.964800
      Cl                34.968850
      N                 14.003070
      H                  1.007825


 Effective nuclear repulsion energy (a.u.)    1190.9076650550

            Nuclear Dipole moment (a.u.) 
            ----------------------------
        X                 Y               Z
 ---------------- ---------------- ----------------
     0.0000000000     0.0000000000     0.0000000000

      Symmetry information
      --------------------

 Group name             C2h       
 Group number             21
 Group order               4
 No. of unique centers     5

      Symmetry unique atoms

     1    2    4    5   10


                                 NWChem DFT Module
                                 -----------------


                                    Transplatin


                      Basis "ao basis" -> "ao basis" (spherical)
                      -----
  Pt (Platinum)
  -------------
            Exponent  Coefficients 
       -------------- ---------------------------------------------------------
  1 S  3.00000000E+01  0.271483
  1 S  2.70000000E+01 -0.422268
  1 S  1.44083186E+01  0.443616

  2 S  5.53357880E+00  1.000000

  3 S  1.29864382E+00  1.000000

  4 S  5.87593931E-01  1.000000

  5 S  1.38455873E-01  1.000000

  6 S  4.92044599E-02  1.000000

  7 P  1.55000000E+01 -0.156727
  7 P  1.40000000E+01  0.238534
  7 P  6.11612123E+00 -0.310414
  7 P  1.57155864E+00  0.564735

  8 P  7.51325108E-01  1.000000

  9 P  3.33064668E-01  1.000000

 10 P  5.70000000E-02  1.000000

 11 D  8.32079376E+00  0.062946
 11 D  7.42072265E+00 -0.090272
 11 D  1.65704106E+00  0.168125
 11 D  7.39435700E-01  0.250454

 12 D  3.05108560E-01  1.000000

 13 D  1.13504053E-01  1.000000

 14 F  6.68130000E-01  1.000000

  Cl (Chlorine)
  -------------
            Exponent  Coefficients 
       -------------- ---------------------------------------------------------
  1 S  6.95079909E+04  0.000543
  1 S  1.04261569E+04  0.004199
  1 S  2.37323341E+03  0.021592
  1 S  6.71564201E+02  0.084599
  1 S  2.18419998E+02  0.247572
  1 S  7.75722497E+01  0.470169
  1 S  2.88888153E+01  0.374364

  2 S  1.27105272E+02  0.025182
  2 S  3.93395830E+01  0.107861
  2 S  7.67406800E+00 -0.274088

  3 S  3.87456276E+00  1.321388
  3 S  1.83858326E+00  0.686370

  4 S  5.02290575E-01  1.000000

  5 S  1.79627234E-01  1.000000

  6 P  6.66504233E+02  0.002363
  6 P  1.57642417E+02  0.018879
  6 P  5.02625210E+01  0.087206
  6 P  1.85360781E+01  0.252856
  6 P  7.29405328E+00  0.435072

  7 P  2.94332490E+00  1.000000

  8 P  1.04049708E+00  1.000000

  9 P  3.84564151E-01  1.000000

 10 P  1.30696427E-01  1.000000

 11 D  4.61000000E+00  0.200000
 11 D  1.01100000E+00  1.000000

 12 D  3.39000000E-01  1.000000

 13 F  7.06000000E-01  1.000000

  N (Nitrogen)
  ------------
            Exponent  Coefficients 
       -------------- ---------------------------------------------------------
  1 S  1.97308006E+04  0.000219
  1 S  2.95789587E+03  0.001696
  1 S  6.73221336E+02  0.008795
  1 S  1.90682495E+02  0.035359
  1 S  6.22954419E+01  0.110958
  1 S  2.26541612E+01  0.249830

  2 S  8.97914774E+00  0.406239
  2 S  3.68630024E+00  0.243382

  3 S  8.46600768E-01  1.000000

  4 S  3.36471338E-01  1.000000

  5 S  1.36476537E-01  1.000000

  6 P  4.92003805E+01  0.005555
  6 P  1.13467905E+01  0.038052
  6 P  3.42739724E+00  0.149537
  6 P  1.17855251E+00  0.349493

  7 P  4.16422050E-01  1.000000

  8 P  1.42608260E-01  1.000000

  9 D  1.65400000E+00  1.000000

 10 D  4.69000000E-01  1.000000

 11 F  1.09300000E+00  1.000000

  H (Hydrogen)
  ------------
            Exponent  Coefficients 
       -------------- ---------------------------------------------------------
  1 S  3.40613410E+01  0.006025
  1 S  5.12357460E+00  0.045021
  1 S  1.16466260E+00  0.201897

  2 S  3.27230410E-01  1.000000

  3 S  1.03072410E-01  1.000000

  4 P  8.00000000E-01  1.000000



 Summary of "ao basis" -> "ao basis" (spherical)
 ------------------------------------------------------------------------------
       Tag                 Description            Shells   Functions and Types
 ---------------- ------------------------------  ------  ---------------------
 Pt                        def2-tzvp                14       40   6s4p3d1f
 Cl                        def2-tzvp                13       37   5s5p2d1f
 N                         def2-tzvp                11       31   5s3p2d1f
 H                         def2-tzvp                 4        6   3s1p




 Summary of "ao basis" -> "ao basis" (spherical)
 ------------------------------------------------------------------------------
       Tag                 Description            Shells   Functions and Types
 ---------------- ------------------------------  ------  ---------------------
 Pt                        def2-tzvp                14       40   6s4p3d1f
 Cl                        def2-tzvp                13       37   5s5p2d1f
 N                         def2-tzvp                11       31   5s3p2d1f
 H                         def2-tzvp                 4        6   3s1p


      Symmetry analysis of basis
      --------------------------

        ag         72
        au         36
        bg         35
        bu         69

  Caching 1-el integrals 

            General Information
            -------------------
          SCF calculation type: DFT
          Wavefunction type:  closed shell.
          No. of atoms     :    11
          No. of electrons :    72
           Alpha electrons :    36
            Beta electrons :    36
          Charge           :     0
          Spin multiplicity:     1
          Use of symmetry is: on ; symmetry adaption is: on 
          Maximum number of iterations: 100
          AO basis - number of functions:   212
                     number of shells:    86
          Convergence on energy requested:  1.00D-06
          Convergence on density requested:  1.00D-05
          Convergence on gradient requested:  5.00D-04

              XC Information
              --------------
                         PBE0 Method XC Functional
                     Hartree-Fock (Exact) Exchange  0.250          
          PerdewBurkeErnzerhof Exchange Functional  0.750          
            Perdew 1991 LDA Correlation Functional  1.000 local    
           PerdewBurkeErnz. Correlation Functional  1.000 non-local

             Grid Information
             ----------------
          Grid used for XC integration:  medium    
          Radial quadrature: Mura-Knowles        
          Angular quadrature: Lebedev. 
          Tag              B.-S. Rad. Rad. Pts. Rad. Cut. Ang. Pts.
          ---              ---------- --------- --------- ---------
          Pt                  1.35      123           9.0       590
          Cl                  1.00       88          12.0       590
          N                   0.65       49          12.0       434
          H                   0.35       45          12.0       434
          Grid pruning is: on 
          Number of quadrature shells:   350
          Spatial weights used:  Erf1

          Convergence Information
          -----------------------
          Convergence aids based upon iterative change in 
          total energy or number of iterations. 
          Levelshifting, if invoked, occurs when the 
          HOMO/LUMO gap drops below (HL_TOL):  1.00D-02
          DIIS, if invoked, will attempt to extrapolate 
          using up to (NFOCK): 10 stored Fock matrices.

                    Damping( 0%)  Levelshifting(0.5)       DIIS
                  --------------- ------------------- ---------------
          dE  on:    start            ASAP                start   
          dE off:    2 iters        100 iters           100 iters 


      Screening Tolerance Information
      -------------------------------
          Density screening/tol_rho:  1.00D-10
          AO Gaussian exp screening on grid/accAOfunc:  14
          CD Gaussian exp screening on grid/accCDfunc:  20
          XC Gaussian exp screening on grid/accXCfunc:  20
          Schwarz screening/accCoul:  1.00D-08


      Superposition of Atomic Density Guess
      -------------------------------------

 Sum of atomic energies:       -1163.68549793

 #quartets = 2.566D+05 #integrals = 3.825D+06 #direct = 98.4% #cached =  1.6%


 Integral file          = /tmp/transplatin.aoints.0
 Record size in doubles =  65536        No. of integs per rec  =  65534
 Max. records in memory =      0        Max. records in file   =      0
 No. of bits per label  =      8        No. of bits per value  =     32


      Non-variational initial energy
      ------------------------------

 Total energy =   -1150.748032
 1-e energy   =   -2460.469953
 2-e energy   =     891.638312
 HOMO         =      -0.343293
 LUMO         =      -0.108583


      Symmetry analysis of molecular orbitals - initial
      -------------------------------------------------

  Numbering of irreducible representations: 

     1 ag          2 au          3 bg          4 bu      

  Orbital symmetries:

     1 ag          2 bu          3 ag          4 bu          5 ag      
     6 bu          7 ag          8 bu          9 ag         10 bu      
    11 bg         12 au         13 ag         14 bu         15 bu      
    16 au         17 ag         18 bu         19 ag         20 bu      
    21 ag         22 bg         23 bu         24 au         25 ag      
    26 ag         27 bg         28 bu         29 ag         30 bu      
    31 au         32 bu         33 ag         34 bg         35 ag      
    36 bg         37 ag         38 ag         39 bu         40 au      
    41 ag         42 bu         43 bg         44 au         45 ag      
    46 ag      

   Time after variat. SCF:      1.3

------------------------------------------------------------
EAF file 0: "/tmp/transplatin.aoints.0" size=524288 bytes
------------------------------------------------------------
               write      read    awrite     aread      wait
               -----      ----    ------     -----      ----
     calls:        1         0         0         0         0
   data(b): 5.24e+05  0.00e+00  0.00e+00  0.00e+00
   time(s): 0.00e+00  0.00e+00  0.00e+00  0.00e+00  0.00e+00
rate(mb/s): 0.00e+00  0.00e+00
------------------------------------------------------------


 Parallel integral file used       1 records with       0 large values

   Time prior to 1st pass:      1.3

 Integral file          = /tmp/transplatin.aoints.0
 Record size in doubles =  65536        No. of integs per rec  =  65534
 Max. records in memory =   1982        Max. records in file   =      0
 No. of bits per label  =      8        No. of bits per value  =     32


 #quartets = 1.783D+06 #integrals = 3.816D+07 #direct =  0.0% #cached =100.0%


 Grid_pts file          = /tmp/transplatin.gridpts.0
 Record size in doubles =  12289        No. of grid_pts per rec  =   3070
 Max. records in memory =     75        Max. recs in file   =   2389175


           Memory utilization after 1st SCF pass: 
           Heap Space remaining (MW):        3.38             3379580
          Stack Space remaining (MW):      134.22           134216364

   convergence    iter        energy       DeltaE   RMS-Dens  Diis-err    time
 ---------------- ----- ----------------- --------- --------- ---------  ------
 d= 0,ls=0.0,diis     1  -1152.5698139033 -1.57D+03  6.72D-03  1.35D+00     7.2
 d= 0,ls=0.0,diis     2  -1152.5562268405  1.36D-02  4.98D-03  1.07D+00     8.3
 d= 0,ls=0.0,diis     3  -1152.6217181478 -6.55D-02  1.89D-03  4.04D-01     9.6
 d= 0,ls=0.0,diis     4  -1152.6594798381 -3.78D-02  4.46D-04  2.08D-02    10.8
 d= 0,ls=0.0,diis     5  -1152.6617264228 -2.25D-03  6.28D-05  4.52D-04    12.0
  Resetting Diis
 d= 0,ls=0.0,diis     6  -1152.6617655161 -3.91D-05  2.32D-05  8.43D-05    13.3
 d= 0,ls=0.0,diis     7  -1152.6617735621 -8.05D-06  8.26D-06  1.93D-06    14.5
 d= 0,ls=0.0,diis     8  -1152.6617734891  7.31D-08  4.29D-06  2.91D-06    15.8


         Total DFT energy =    -1152.661773489057
      One electron energy =    -2467.369998781611
           Coulomb energy =      980.607119234136
    Exchange-Corr. energy =      -83.982502806423
 Nuclear repulsion energy =      418.083608864842

 Numeric. integr. density =       72.000017686689

     Total iterative time =     14.5s



                  Occupations of the irreducible representations
                  ----------------------------------------------

                     irrep           alpha         beta
                     --------     --------     --------
                     ag               14.0         14.0
                     au                4.0          4.0
                     bg                5.0          5.0
                     bu               13.0         13.0


 center of mass
 --------------
 x =  -0.00000000 y =   0.00000000 z =   0.00000000

 moments of inertia (a.u.)
 ------------------
        1317.505635996533          -0.000000000000           0.000000000000
          -0.000000000000         522.237282513687           0.000000000000
           0.000000000000           0.000000000000        1820.505280245511

     Multipole analysis of the density
     ---------------------------------

     L   x y z        total         alpha         beta         nuclear
     -   - - -        -----         -----         ----         -------
     0   0 0 0      0.000000    -36.000000    -36.000000     72.000000

     1   1 0 0      0.000000      0.000000      0.000000      0.000000
     1   0 1 0      0.000000      0.000000      0.000000      0.000000
     1   0 0 1     -0.000000     -0.000000     -0.000000      0.000000

     2   2 0 0    -28.933690   -171.287750   -171.287750    313.641811
     2   1 1 0      0.171921      0.101353      0.101353     -0.030784
     2   1 0 1     -0.000000     -0.000000     -0.000000      0.000000
     2   0 2 0    -60.093741   -350.382595   -350.382595    640.671450
     2   0 1 1     -0.000000     -0.000000     -0.000000      0.000000
     2   0 0 2    -46.332736    -27.938436    -27.938436      9.544136


 Parallel integral file used     583 records with      24 large values


            General Information
            -------------------
          SCF calculation type: DFT
          Wavefunction type:  closed shell.
          No. of atoms     :    11
          No. of electrons :    72
           Alpha electrons :    36
            Beta electrons :    36
          Charge           :     0
          Spin multiplicity:     1
          Use of symmetry is: on ; symmetry adaption is: on 
          Maximum number of iterations: 100
          AO basis - number of functions:   212
                     number of shells:    86
          Convergence on energy requested:  1.00D-06
          Convergence on density requested:  1.00D-05
          Convergence on gradient requested:  5.00D-04

              XC Information
              --------------
                         PBE0 Method XC Functional
                     Hartree-Fock (Exact) Exchange  0.250          
          PerdewBurkeErnzerhof Exchange Functional  0.750          
            Perdew 1991 LDA Correlation Functional  1.000 local    
           PerdewBurkeErnz. Correlation Functional  1.000 non-local

             Grid Information
             ----------------
          Grid used for XC integration:  medium    
          Radial quadrature: Mura-Knowles        
          Angular quadrature: Lebedev. 
          Tag              B.-S. Rad. Rad. Pts. Rad. Cut. Ang. Pts.
          ---              ---------- --------- --------- ---------
          Pt                  1.35      123           9.0       590
          Cl                  1.00       88          12.0       590
          N                   0.65       49          12.0       434
          H                   0.35       45          12.0       434
          Grid pruning is: on 
          Number of quadrature shells:   350
          Spatial weights used:  Erf1

          Convergence Information
          -----------------------
          Convergence aids based upon iterative change in 
          total energy or number of iterations. 
          Levelshifting, if invoked, occurs when the 
          HOMO/LUMO gap drops below (HL_TOL):  1.00D-02
          DIIS, if invoked, will attempt to extrapolate 
          using up to (NFOCK): 10 stored Fock matrices.

                    Damping( 0%)  Levelshifting(0.5)       DIIS
                  --------------- ------------------- ---------------
          dE  on:    start            ASAP                start   
          dE off:    2 iters        100 iters           100 iters 


      Screening Tolerance Information
      -------------------------------
          Density screening/tol_rho:  1.00D-10
          AO Gaussian exp screening on grid/accAOfunc:  14
          CD Gaussian exp screening on grid/accCDfunc:  20
          XC Gaussian exp screening on grid/accXCfunc:  20
          Schwarz screening/accCoul:  1.00D-08



                            NWChem DFT Gradient Module
                            --------------------------


                                    Transplatin



  charge          =   0.00
  wavefunction    = closed shell

  Using symmetry


                         DFT ENERGY GRADIENTS

    atom               coordinates                        gradient
                 x          y          z           x          y          z
   1 Pt      0.000000   0.000000   0.000000    0.000000   0.000000   0.000000
   2 Cl     -0.000287  -4.308575   0.000000   -0.000465   0.006684   0.000000
   3 Cl      0.000287   4.308575   0.000000    0.000465  -0.006684   0.000000
   4 N      -3.760555   0.000251   0.000000    0.001655  -0.000917   0.000000
   5 H      -4.390523  -0.887539  -1.544679    0.006578   0.007943   0.009481
   6 H      -4.390523  -0.887539   1.544679    0.006578   0.007943  -0.009481
   7 N       3.760555  -0.000251   0.000000   -0.001655   0.000917   0.000000
   8 H       4.390523   0.887539  -1.544679   -0.006578  -0.007943   0.009481
   9 H       4.390523   0.887539   1.544679   -0.006578  -0.007943  -0.009481
  10 H       4.390345  -1.781943   0.000000   -0.005420   0.015081   0.000000
  11 H      -4.390345   1.781943   0.000000    0.005420  -0.015081   0.000000

                 ----------------------------------------
                 |  Time  |  1-e(secs)   |  2-e(secs)   |
                 ----------------------------------------
                 |  CPU   |       0.15   |      20.00   |
                 ----------------------------------------
                 |  WALL  |       0.15   |      20.01   |
                 ----------------------------------------
  no constraints, skipping    0.0000000000000000     

@ Step       Energy      Delta E   Gmax     Grms     Xrms     Xmax   Walltime
@ ---- ---------------- -------- -------- -------- -------- -------- --------
@    0   -1152.66177349  0.0D+00  0.02023  0.00642  0.00000  0.00000     36.9
                                                                    



                                Z-matrix (autoz)
                                -------- 

 Units are Angstrom for bonds and degrees for angles

      Type          Name      I     J     K     L     M      Value     Gradient
      ----------- --------  ----- ----- ----- ----- ----- ---------- ----------
    1 Stretch                  1     2                       2.28000   -0.00668
    2 Stretch                  1     3                       2.28000   -0.00668
    3 Stretch                  1     4                       1.99000   -0.02023
    4 Stretch                  1     7                       1.99000   -0.02023
    5 Stretch                  4     5                       1.00000   -0.01367
    6 Stretch                  4     6                       1.00000   -0.01367
    7 Stretch                  4    11                       1.00000   -0.01603
    8 Stretch                  7     8                       1.00000   -0.01367
    9 Stretch                  7     9                       1.00000   -0.01367
   10 Stretch                  7    10                       1.00000   -0.01603
   11 Bend                     1     4     5               109.47122   -0.00121
   12 Bend                     1     4     6               109.47122   -0.00121
   13 Bend                     1     4    11               109.47122    0.00023
   14 Bend                     1     7     8               109.47122   -0.00121
   15 Bend                     1     7     9               109.47122   -0.00121
   16 Bend                     1     7    10               109.47122    0.00023
   17 Bend                     2     1     4                90.00000   -0.00053
   18 Bend                     2     1     7                90.00000    0.00053
   19 Bend                     3     1     4                90.00000    0.00053
   20 Bend                     3     1     7                90.00000   -0.00053
   21 Bend                     5     4     6               109.65254    0.00155
   22 Bend                     5     4    11               109.38048    0.00032
   23 Bend                     6     4    11               109.38048    0.00032
   24 Bend                     8     7     9               109.65254    0.00155
   25 Bend                     8     7    10               109.38048    0.00032
   26 Bend                     9     7    10               109.38048    0.00032
   27 Torsion                  2     1     4     5         -60.11110   -0.00021
   28 Torsion                  2     1     4     6          60.11110    0.00021
   29 Torsion                  2     1     4    11         180.00000   -0.00000
   30 Torsion                  2     1     7     8         119.88890   -0.00021
   31 Torsion                  2     1     7     9        -119.88890    0.00021
   32 Torsion                  2     1     7    10           0.00000   -0.00000
   33 Torsion                  3     1     4     5         119.88890   -0.00021
   34 Torsion                  3     1     4     6        -119.88890    0.00021
   35 Torsion                  3     1     4    11          -0.00000   -0.00000
   36 Torsion                  3     1     7     8         -60.11110   -0.00021
   37 Torsion                  3     1     7     9          60.11110    0.00021
   38 Torsion                  3     1     7    10         180.00000   -0.00000
   39 Torsion                  5     4     7     8          59.77780   -0.00041
   40 Torsion                  5     4     7     9         180.00000    0.00000
   41 Torsion                  5     4     7    10         -60.11110   -0.00021
   42 Torsion                  4     5     1     7        -180.00000   -0.00000
   43 Torsion                  6     4     7     8         180.00000   -0.00000
   44 Torsion                  6     4     7     9         -59.77780    0.00041
   45 Torsion                  6     4     7    10          60.11110    0.00021
   46 Torsion                  4     6     1     7         180.00000   -0.00000
   47 Torsion                  8     7     4    11         -60.11110   -0.00021
   48 Torsion                  4     1     8     7        -180.00000   -0.00000
   49 Torsion                  9     7     4    11          60.11110    0.00021
   50 Torsion                  4     1     9     7         180.00000   -0.00000
   51 Torsion                 10     7     4    11         180.00000    0.00000
   52 Torsion                  4     1    10     7         180.00000   -0.00000
   53 Torsion                  4    11     1     7         180.00000   -0.00000

  no constraints, skipping    0.0000000000000000     
  no constraints, skipping    0.0000000000000000     
  no constraints, skipping    0.0000000000000000     
  no constraints, skipping    0.0000000000000000     
  no constraints, skipping    0.0000000000000000     
  no constraints, skipping    0.0000000000000000     
  no constraints, skipping    0.0000000000000000     
  no constraints, skipping    0.0000000000000000     

                                 NWChem DFT Module
                                 -----------------


                                    Transplatin




 Summary of "ao basis" -> "ao basis" (spherical)
 ------------------------------------------------------------------------------
       Tag                 Description            Shells   Functions and Types
 ---------------- ------------------------------  ------  ---------------------
 Pt                        def2-tzvp                14       40   6s4p3d1f
 Cl                        def2-tzvp                13       37   5s5p2d1f
 N                         def2-tzvp                11       31   5s3p2d1f
 H                         def2-tzvp                 4        6   3s1p


      Symmetry analysis of basis
      --------------------------

        ag         72
        au         36
        bg         35
        bu         69

  Caching 1-el integrals 

            General Information
            -------------------
          SCF calculation type: DFT
          Wavefunction type:  closed shell.
          No. of atoms     :    11
          No. of electrons :    72
           Alpha electrons :    36
            Beta electrons :    36
          Charge           :     0
          Spin multiplicity:     1
          Use of symmetry is: on ; symmetry adaption is: on 
          Maximum number of iterations: 100
          AO basis - number of functions:   212
                     number of shells:    86
          Convergence on energy requested:  1.00D-06
          Convergence on density requested:  1.00D-05
          Convergence on gradient requested:  5.00D-04

              XC Information
              --------------
                         PBE0 Method XC Functional
                     Hartree-Fock (Exact) Exchange  0.250          
          PerdewBurkeErnzerhof Exchange Functional  0.750          
            Perdew 1991 LDA Correlation Functional  1.000 local    
           PerdewBurkeErnz. Correlation Functional  1.000 non-local

             Grid Information
             ----------------
          Grid used for XC integration:  medium    
          Radial quadrature: Mura-Knowles        
          Angular quadrature: Lebedev. 
          Tag              B.-S. Rad. Rad. Pts. Rad. Cut. Ang. Pts.
          ---              ---------- --------- --------- ---------
          Pt                  1.35      123           9.0       590
          Cl                  1.00       88          12.0       590
          N                   0.65       49          12.0       434
          H                   0.35       45          13.0       434
          Grid pruning is: on 
          Number of quadrature shells:   350
          Spatial weights used:  Erf1

          Convergence Information
          -----------------------
          Convergence aids based upon iterative change in 
          total energy or number of iterations. 
          Levelshifting, if invoked, occurs when the 
          HOMO/LUMO gap drops below (HL_TOL):  1.00D-02
          DIIS, if invoked, will attempt to extrapolate 
          using up to (NFOCK): 10 stored Fock matrices.

                    Damping( 0%)  Levelshifting(0.5)       DIIS
                  --------------- ------------------- ---------------
          dE  on:    start            ASAP                start   
          dE off:    2 iters        100 iters           100 iters 


      Screening Tolerance Information
      -------------------------------
          Density screening/tol_rho:  1.00D-10
          AO Gaussian exp screening on grid/accAOfunc:  14
          CD Gaussian exp screening on grid/accCDfunc:  20
          XC Gaussian exp screening on grid/accXCfunc:  20
          Schwarz screening/accCoul:  1.00D-08


 Loading old vectors from job with title :

Transplatin


      Symmetry analysis of molecular orbitals - initial
      -------------------------------------------------

  Numbering of irreducible representations: 

     1 ag          2 au          3 bg          4 bu      

  Orbital symmetries:

     1 ag          2 bu          3 ag          4 bu          5 ag      
     6 bu          7 ag          8 bu          9 bu         10 ag      
    11 au         12 bg         13 ag         14 bu         15 bu      
    16 au         17 ag         18 bu         19 ag         20 bu      
    21 ag         22 bg         23 au         24 bu         25 ag      
    26 bu         27 ag         28 ag         29 bg         30 bu      
    31 bu         32 au         33 bg         34 ag         35 ag      
    36 bg         37 ag         38 ag         39 bu         40 au      
    41 bu         42 bg         43 au         44 ag         45 ag      
    46 bu      

   Time after variat. SCF:     37.1
   Time prior to 1st pass:     37.1

 Integral file          = /tmp/transplatin.aoints.0
 Record size in doubles =  65536        No. of integs per rec  =  65534
 Max. records in memory =   1982        Max. records in file   =      0
 No. of bits per label  =      8        No. of bits per value  =     32


 #quartets = 1.767D+06 #integrals = 3.854D+07 #direct =  0.0% #cached =100.0%


 Grid_pts file          = /tmp/transplatin.gridpts.0
 Record size in doubles =  12289        No. of grid_pts per rec  =   3070
 Max. records in memory =     75        Max. recs in file   =   2389175


           Memory utilization after 1st SCF pass: 
           Heap Space remaining (MW):        3.38             3379580
          Stack Space remaining (MW):      134.22           134216364

   convergence    iter        energy       DeltaE   RMS-Dens  Diis-err    time
 ---------------- ----- ----------------- --------- --------- ---------  ------
 d= 0,ls=0.0,diis     1  -1152.6639190329 -1.57D+03  3.31D-04  6.13D-02    43.2
 d= 0,ls=0.0,diis     2  -1152.6644370806 -5.18D-04  2.32D-04  3.77D-03    44.5
 d= 0,ls=0.0,diis     3  -1152.6643151588  1.22D-04  1.29D-04  5.18D-03    45.7
 d= 0,ls=0.0,diis     4  -1152.6648011137 -4.86D-04  2.39D-05  6.44D-05    46.9
 d= 0,ls=0.0,diis     5  -1152.6648077207 -6.61D-06  4.00D-06  4.16D-07    48.1
 d= 0,ls=0.0,diis     6  -1152.6648077847 -6.41D-08  1.33D-06  1.17D-07    49.6


         Total DFT energy =    -1152.664807784740
      One electron energy =    -2459.638356433883
           Coulomb energy =      976.767706506755
    Exchange-Corr. energy =      -83.903094277150
 Nuclear repulsion energy =      414.108936419538

 Numeric. integr. density =       72.000011035330

     Total iterative time =     12.4s



                  Occupations of the irreducible representations
                  ----------------------------------------------

                     irrep           alpha         beta
                     --------     --------     --------
                     ag               14.0         14.0
                     au                4.0          4.0
                     bg                5.0          5.0
                     bu               13.0         13.0


 center of mass
 --------------
 x =   0.00000000 y =   0.00000000 z =   0.00000000

 moments of inertia (a.u.)
 ------------------
        1329.428664517943           4.266304131797           0.000000000000
           4.266304131797         538.833700379392           0.000000000000
           0.000000000000           0.000000000000        1848.529917847732

     Multipole analysis of the density
     ---------------------------------

     L   x y z        total         alpha         beta         nuclear
     -   - - -        -----         -----         ----         -------
     0   0 0 0     -0.000000    -36.000000    -36.000000     72.000000

     1   1 0 0      0.000000      0.000000      0.000000     -0.000000
     1   0 1 0     -0.000000     -0.000000     -0.000000      0.000000
     1   0 0 1     -0.000000     -0.000000     -0.000000      0.000000

     2   2 0 0    -28.297595   -176.142814   -176.142814    323.988033
     2   1 1 0      0.247580      1.169608      1.169608     -2.091637
     2   1 0 1     -0.000000     -0.000000     -0.000000      0.000000
     2   0 2 0    -60.194572   -353.391492   -353.391492    646.588413
     2   0 1 1     -0.000000     -0.000000     -0.000000      0.000000
     2   0 0 2    -46.385053    -28.087336    -28.087336      9.789620


 Parallel integral file used     589 records with      24 large values

 Line search: 
     step= 1.00 grad=-6.3D-03 hess= 3.3D-03 energy=  -1152.664808 mode=accept  
 new step= 1.00                   predicted energy=  -1152.664808
  no constraints, skipping    0.0000000000000000     
  no constraints, skipping    0.0000000000000000     
  no constraints, skipping    0.0000000000000000     
  no constraints, skipping    0.0000000000000000     
  no constraints, skipping    0.0000000000000000     
  no constraints, skipping    0.0000000000000000     
  no constraints, skipping    0.0000000000000000     
  no constraints, skipping    0.0000000000000000     

          --------
          Step   1
          --------


                         Geometry "geometry" -> "geometry"
                         ---------------------------------

 Output coordinates in angstroms (scale by  1.889725989 to convert to a.u.)

  No.       Tag          Charge          X              Y              Z
 ---- ---------------- ---------- -------------- -------------- --------------
    1 Pt                  78.0000     0.00000000     0.00000000     0.00000000
    2 Cl                  17.0000     0.00687454    -2.28981267     0.00000000
    3 Cl                  17.0000    -0.00687454     2.28981267     0.00000000
    4 N                    7.0000    -2.01972990     0.00152718     0.00000000
    5 H                    1.0000    -2.37015603    -0.48060105    -0.82785463
    6 H                    1.0000    -2.37015603    -0.48060105     0.82785463
    7 N                    7.0000     2.01972990    -0.00152718     0.00000000
    8 H                    1.0000     2.37015603     0.48060105    -0.82785463
    9 H                    1.0000     2.37015603     0.48060105     0.82785463
   10 H                    1.0000     2.36044626    -0.96670823     0.00000000
   11 H                    1.0000    -2.36044626     0.96670823     0.00000000

      Atomic Mass 
      ----------- 

      Pt               194.964800
      Cl                34.968850
      N                 14.003070
      H                  1.007825


 Effective nuclear repulsion energy (a.u.)    1180.2156416357

            Nuclear Dipole moment (a.u.) 
            ----------------------------
        X                 Y               Z
 ---------------- ---------------- ----------------
    -0.0000000000     0.0000000000     0.0000000000

      Symmetry information
      --------------------

 Group name             C2h       
 Group number             21
 Group order               4
 No. of unique centers     5

      Symmetry unique atoms

     1    2    4    5   10


                                 NWChem DFT Module
                                 -----------------


                                    Transplatin




 Summary of "ao basis" -> "ao basis" (spherical)
 ------------------------------------------------------------------------------
       Tag                 Description            Shells   Functions and Types
 ---------------- ------------------------------  ------  ---------------------
 Pt                        def2-tzvp                14       40   6s4p3d1f
 Cl                        def2-tzvp                13       37   5s5p2d1f
 N                         def2-tzvp                11       31   5s3p2d1f
 H                         def2-tzvp                 4        6   3s1p


      Symmetry analysis of basis
      --------------------------

        ag         72
        au         36
        bg         35
        bu         69


  The DFT is already converged 

         Total DFT energy =  -1152.664807784740


            General Information
            -------------------
          SCF calculation type: DFT
          Wavefunction type:  closed shell.
          No. of atoms     :    11
          No. of electrons :    72
           Alpha electrons :    36
            Beta electrons :    36
          Charge           :     0
          Spin multiplicity:     1
          Use of symmetry is: on ; symmetry adaption is: on 
          Maximum number of iterations: 100
          AO basis - number of functions:   212
                     number of shells:    86
          Convergence on energy requested:  1.00D-06
          Convergence on density requested:  1.00D-05
          Convergence on gradient requested:  5.00D-04

              XC Information
              --------------
                         PBE0 Method XC Functional
                     Hartree-Fock (Exact) Exchange  0.250          
          PerdewBurkeErnzerhof Exchange Functional  0.750          
            Perdew 1991 LDA Correlation Functional  1.000 local    
           PerdewBurkeErnz. Correlation Functional  1.000 non-local

             Grid Information
             ----------------
          Grid used for XC integration:  medium    
          Radial quadrature: Mura-Knowles        
          Angular quadrature: Lebedev. 
          Tag              B.-S. Rad. Rad. Pts. Rad. Cut. Ang. Pts.
          ---              ---------- --------- --------- ---------
          Pt                  1.35      123           9.0       590
          Cl                  1.00       88          12.0       590
          N                   0.65       49          12.0       434
          H                   0.35       45          13.0       434
          Grid pruning is: on 
          Number of quadrature shells:   350
          Spatial weights used:  Erf1

          Convergence Information
          -----------------------
          Convergence aids based upon iterative change in 
          total energy or number of iterations. 
          Levelshifting, if invoked, occurs when the 
          HOMO/LUMO gap drops below (HL_TOL):  1.00D-02
          DIIS, if invoked, will attempt to extrapolate 
          using up to (NFOCK): 10 stored Fock matrices.

                    Damping( 0%)  Levelshifting(0.5)       DIIS
                  --------------- ------------------- ---------------
          dE  on:    start            ASAP                start   
          dE off:    2 iters        100 iters           100 iters 


      Screening Tolerance Information
      -------------------------------
          Density screening/tol_rho:  1.00D-10
          AO Gaussian exp screening on grid/accAOfunc:  14
          CD Gaussian exp screening on grid/accCDfunc:  20
          XC Gaussian exp screening on grid/accXCfunc:  20
          Schwarz screening/accCoul:  1.00D-08



                            NWChem DFT Gradient Module
                            --------------------------


                                    Transplatin



  charge          =   0.00
  wavefunction    = closed shell

  Using symmetry


                         DFT ENERGY GRADIENTS

    atom               coordinates                        gradient
                 x          y          z           x          y          z
   1 Pt      0.000000   0.000000   0.000000    0.000000   0.000000   0.000000
   2 Cl      0.012991  -4.327119   0.000000   -0.000422   0.003409   0.000000
   3 Cl     -0.012991   4.327119   0.000000    0.000422  -0.003409   0.000000
   4 N      -3.816736   0.002886   0.000000    0.008666  -0.001930   0.000000
   5 H      -4.478945  -0.908204  -1.564418   -0.000443  -0.001324  -0.003999
   6 H      -4.478945  -0.908204   1.564418   -0.000443  -0.001324   0.003999
   7 N       3.816736  -0.002886   0.000000   -0.008666   0.001930   0.000000
   8 H       4.478945   0.908204  -1.564418    0.000443   0.001324  -0.003999
   9 H       4.478945   0.908204   1.564418    0.000443   0.001324   0.003999
  10 H       4.460597  -1.826814   0.000000    0.001709  -0.004435   0.000000
  11 H      -4.460597   1.826814   0.000000   -0.001709   0.004435   0.000000

                 ----------------------------------------
                 |  Time  |  1-e(secs)   |  2-e(secs)   |
                 ----------------------------------------
                 |  CPU   |       0.15   |      19.71   |
                 ----------------------------------------
                 |  WALL  |       0.15   |      19.71   |
                 ----------------------------------------
  no constraints, skipping    0.0000000000000000     

  Step       Energy      Delta E   Gmax     Grms     Xrms     Xmax   Walltime
  ---- ---------------- -------- -------- -------- -------- -------- --------
@    1   -1152.66480778 -3.0D-03  0.00607  0.00199  0.04118  0.08873     70.5
                                                                    



                                Z-matrix (autoz)
                                -------- 

 Units are Angstrom for bonds and degrees for angles

      Type          Name      I     J     K     L     M      Value     Gradient
      ----------- --------  ----- ----- ----- ----- ----- ---------- ----------
    1 Stretch                  1     2                       2.28982   -0.00341
    2 Stretch                  1     3                       2.28982   -0.00341
    3 Stretch                  1     4                       2.01973   -0.00607
    4 Stretch                  1     7                       2.01973   -0.00607
    5 Stretch                  4     5                       1.02009    0.00402
    6 Stretch                  4     6                       1.02009    0.00402
    7 Stretch                  4    11                       1.02355    0.00475
    8 Stretch                  7     8                       1.02009    0.00402
    9 Stretch                  7     9                       1.02009    0.00402
   10 Stretch                  7    10                       1.02355    0.00475
   11 Bend                     1     4     5               110.06990   -0.00060
   12 Bend                     1     4     6               110.06990   -0.00060
   13 Bend                     1     4    11               109.48675    0.00026
   14 Bend                     1     7     8               110.06990   -0.00060
   15 Bend                     1     7     9               110.06990   -0.00060
   16 Bend                     1     7    10               109.48675    0.00026
   17 Bend                     2     1     4                90.21534   -0.00047
   18 Bend                     2     1     7                89.78466    0.00047
   19 Bend                     3     1     4                89.78466    0.00047
   20 Bend                     3     1     7                90.21534   -0.00047
   21 Bend                     5     4     6               108.49497    0.00072
   22 Bend                     5     4    11               109.34934    0.00011
   23 Bend                     6     4    11               109.34934    0.00011
   24 Bend                     8     7     9               108.49497    0.00072
   25 Bend                     8     7    10               109.34934    0.00011
   26 Bend                     9     7    10               109.34934    0.00011
   27 Torsion                  2     1     4     5         -59.77053   -0.00007
   28 Torsion                  2     1     4     6          59.77053    0.00007
   29 Torsion                  2     1     4    11         180.00000    0.00000
   30 Torsion                  2     1     7     8         120.22947   -0.00007
   31 Torsion                  2     1     7     9        -120.22947    0.00007
   32 Torsion                  2     1     7    10           0.00000   -0.00000
   33 Torsion                  3     1     4     5         120.22947   -0.00007
   34 Torsion                  3     1     4     6        -120.22947    0.00007
   35 Torsion                  3     1     4    11           0.00000    0.00000
   36 Torsion                  3     1     7     8         -59.77053   -0.00007
   37 Torsion                  3     1     7     9          59.77053    0.00007
   38 Torsion                  3     1     7    10         180.00000    0.00000
   39 Torsion                  5     4     7     8          60.45893   -0.00014
   40 Torsion                  5     4     7     9         180.00000   -0.00000
   41 Torsion                  5     4     7    10         -59.77053   -0.00007
   42 Torsion                  4     5     1     7         180.00000   -0.00000
   43 Torsion                  6     4     7     8         180.00000   -0.00000
   44 Torsion                  6     4     7     9         -60.45893    0.00014
   45 Torsion                  6     4     7    10          59.77053    0.00007
   46 Torsion                  4     6     1     7        -180.00000   -0.00000
   47 Torsion                  8     7     4    11         -59.77053   -0.00007
   48 Torsion                  4     1     8     7         180.00000    0.00000
   49 Torsion                  9     7     4    11          59.77053    0.00007
   50 Torsion                  4     1     9     7        -180.00000    0.00000
   51 Torsion                 10     7     4    11         180.00000    0.00000
   52 Torsion                  4     1    10     7         180.00000   -0.00000
   53 Torsion                  4    11     1     7         180.00000   -0.00000

  no constraints, skipping    0.0000000000000000     
  no constraints, skipping    0.0000000000000000     
  no constraints, skipping    0.0000000000000000     
  no constraints, skipping    0.0000000000000000     
  no constraints, skipping    0.0000000000000000     
  no constraints, skipping    0.0000000000000000     
  no constraints, skipping    0.0000000000000000     
  no constraints, skipping    0.0000000000000000     

                                 NWChem DFT Module
                                 -----------------


                                    Transplatin




 Summary of "ao basis" -> "ao basis" (spherical)
 ------------------------------------------------------------------------------
       Tag                 Description            Shells   Functions and Types
 ---------------- ------------------------------  ------  ---------------------
 Pt                        def2-tzvp                14       40   6s4p3d1f
 Cl                        def2-tzvp                13       37   5s5p2d1f
 N                         def2-tzvp                11       31   5s3p2d1f
 H                         def2-tzvp                 4        6   3s1p


      Symmetry analysis of basis
      --------------------------

        ag         72
        au         36
        bg         35
        bu         69

  Caching 1-el integrals 

            General Information
            -------------------
          SCF calculation type: DFT
          Wavefunction type:  closed shell.
          No. of atoms     :    11
          No. of electrons :    72
           Alpha electrons :    36
            Beta electrons :    36
          Charge           :     0
          Spin multiplicity:     1
          Use of symmetry is: on ; symmetry adaption is: on 
          Maximum number of iterations: 100
          AO basis - number of functions:   212
                     number of shells:    86
          Convergence on energy requested:  1.00D-06
          Convergence on density requested:  1.00D-05
          Convergence on gradient requested:  5.00D-04

              XC Information
              --------------
                         PBE0 Method XC Functional
                     Hartree-Fock (Exact) Exchange  0.250          
          PerdewBurkeErnzerhof Exchange Functional  0.750          
            Perdew 1991 LDA Correlation Functional  1.000 local    
           PerdewBurkeErnz. Correlation Functional  1.000 non-local

             Grid Information
             ----------------
          Grid used for XC integration:  medium    
          Radial quadrature: Mura-Knowles        
          Angular quadrature: Lebedev. 
          Tag              B.-S. Rad. Rad. Pts. Rad. Cut. Ang. Pts.
          ---              ---------- --------- --------- ---------
          Pt                  1.35      123           9.0       590
          Cl                  1.00       88          12.0       590
          N                   0.65       49          12.0       434
          H                   0.35       45          13.0       434
          Grid pruning is: on 
          Number of quadrature shells:   350
          Spatial weights used:  Erf1

          Convergence Information
          -----------------------
          Convergence aids based upon iterative change in 
          total energy or number of iterations. 
          Levelshifting, if invoked, occurs when the 
          HOMO/LUMO gap drops below (HL_TOL):  1.00D-02
          DIIS, if invoked, will attempt to extrapolate 
          using up to (NFOCK): 10 stored Fock matrices.

                    Damping( 0%)  Levelshifting(0.5)       DIIS
                  --------------- ------------------- ---------------
          dE  on:    start            ASAP                start   
          dE off:    2 iters        100 iters           100 iters 


      Screening Tolerance Information
      -------------------------------
          Density screening/tol_rho:  1.00D-10
          AO Gaussian exp screening on grid/accAOfunc:  14
          CD Gaussian exp screening on grid/accCDfunc:  20
          XC Gaussian exp screening on grid/accXCfunc:  20
          Schwarz screening/accCoul:  1.00D-08


 Loading old vectors from job with title :

Transplatin


      Symmetry analysis of molecular orbitals - initial
      -------------------------------------------------

  Numbering of irreducible representations: 

     1 ag          2 au          3 bg          4 bu      

  Orbital symmetries:

     1 ag          2 bu          3 ag          4 bu          5 ag      
     6 bu          7 ag          8 bu          9 bu         10 ag      
    11 au         12 bg         13 ag         14 bu         15 bu      
    16 au         17 ag         18 bu         19 ag         20 bu      
    21 ag         22 bg         23 au         24 bu         25 ag      
    26 bu         27 ag         28 ag         29 bg         30 bu      
    31 bu         32 au         33 bg         34 ag         35 ag      
    36 bg         37 ag         38 ag         39 bu         40 au      
    41 bu         42 bg         43 au         44 ag         45 ag      
    46 bu      

   Time after variat. SCF:     70.6
   Time prior to 1st pass:     70.6

 Integral file          = /tmp/transplatin.aoints.0
 Record size in doubles =  65536        No. of integs per rec  =  65534
 Max. records in memory =   1982        Max. records in file   =      0
 No. of bits per label  =      8        No. of bits per value  =     32


 #quartets = 1.759D+06 #integrals = 3.842D+07 #direct =  0.0% #cached =100.0%


 Grid_pts file          = /tmp/transplatin.gridpts.0
 Record size in doubles =  12289        No. of grid_pts per rec  =   3070
 Max. records in memory =     75        Max. recs in file   =   2389175


           Memory utilization after 1st SCF pass: 
           Heap Space remaining (MW):        3.38             3379580
          Stack Space remaining (MW):      134.22           134216364

   convergence    iter        energy       DeltaE   RMS-Dens  Diis-err    time
 ---------------- ----- ----------------- --------- --------- ---------  ------
 d= 0,ls=0.0,diis     1  -1152.6650989730 -1.57D+03  1.19D-04  9.86D-03    76.7
 d= 0,ls=0.0,diis     2  -1152.6651839161 -8.49D-05  5.35D-05  1.17D-04    78.0
 d= 0,ls=0.0,diis     3  -1152.6651770784  6.84D-06  3.76D-05  1.83D-04    79.2
 d= 0,ls=0.0,diis     4  -1152.6651945034 -1.74D-05  9.59D-06  7.74D-06    80.4
 d= 0,ls=0.0,diis     5  -1152.6651952857 -7.82D-07  2.22D-06  8.36D-07    81.6


         Total DFT energy =    -1152.665195285734
      One electron energy =    -2456.951243846210
           Coulomb energy =      975.427802765017
    Exchange-Corr. energy =      -83.903925162931
 Nuclear repulsion energy =      412.762170958390

 Numeric. integr. density =       72.000003021230

     Total iterative time =     11.0s



                  Occupations of the irreducible representations
                  ----------------------------------------------

                     irrep           alpha         beta
                     --------     --------     --------
                     ag               14.0         14.0
                     au                4.0          4.0
                     bg                5.0          5.0
                     bu               13.0         13.0


 center of mass
 --------------
 x =   0.00000000 y =   0.00000000 z =   0.00000000

 moments of inertia (a.u.)
 ------------------
        1335.944128893351           8.535968251542           0.000000000000
           8.535968251542         544.889364262772           0.000000000000
           0.000000000000           0.000000000000        1861.399430037754

     Multipole analysis of the density
     ---------------------------------

     L   x y z        total         alpha         beta         nuclear
     -   - - -        -----         -----         ----         -------
     0   0 0 0      0.000000    -36.000000    -36.000000     72.000000

     1   1 0 0      0.000000      0.000000      0.000000     -0.000000
     1   0 1 0      0.000000      0.000000      0.000000     -0.000000
     1   0 0 1     -0.000000     -0.000000     -0.000000      0.000000

     2   2 0 0    -27.998487   -177.893615   -177.893615    327.788743
     2   1 1 0      0.310064      2.235628      2.235628     -4.161191
     2   1 0 1     -0.000000     -0.000000     -0.000000      0.000000
     2   0 2 0    -60.264333   -355.030284   -355.030284    649.796235
     2   0 1 1     -0.000000     -0.000000     -0.000000      0.000000
     2   0 0 2    -46.427909    -28.034747    -28.034747      9.641586


 Parallel integral file used     587 records with      24 large values

 Line search: 
     step= 1.00 grad=-6.2D-04 hess= 2.3D-04 energy=  -1152.665195 mode=downhill
 new step= 1.33                   predicted energy=  -1152.665220
  no constraints, skipping    0.0000000000000000     
  no constraints, skipping    0.0000000000000000     
  no constraints, skipping    0.0000000000000000     
  no constraints, skipping    0.0000000000000000     
  no constraints, skipping    0.0000000000000000     
  no constraints, skipping    0.0000000000000000     
  no constraints, skipping    0.0000000000000000     
  no constraints, skipping    0.0000000000000000     

          --------
          Step   2
          --------


                         Geometry "geometry" -> "geometry"
                         ---------------------------------

 Output coordinates in angstroms (scale by  1.889725989 to convert to a.u.)

  No.       Tag          Charge          X              Y              Z
 ---- ---------------- ---------- -------------- -------------- --------------
    1 Pt                  78.0000     0.00000000     0.00000000     0.00000000
    2 Cl                  17.0000     0.01616668    -2.29759177     0.00000000
    3 Cl                  17.0000    -0.01616668     2.29759177     0.00000000
    4 N                    7.0000    -2.03525660     0.00322863     0.00000000
    5 H                    1.0000    -2.39221869    -0.47757134    -0.81952873
    6 H                    1.0000    -2.39221869    -0.47757134     0.81952873
    7 N                    7.0000     2.03525660    -0.00322863     0.00000000
    8 H                    1.0000     2.39221869     0.47757134    -0.81952873
    9 H                    1.0000     2.39221869     0.47757134     0.81952873
   10 H                    1.0000     2.37133206    -0.96364285     0.00000000
   11 H                    1.0000    -2.37133206     0.96364285     0.00000000

      Atomic Mass 
      ----------- 

      Pt               194.964800
      Cl                34.968850
      N                 14.003070
      H                  1.007825


 Effective nuclear repulsion energy (a.u.)    1174.7295341448

            Nuclear Dipole moment (a.u.) 
            ----------------------------
        X                 Y               Z
 ---------------- ---------------- ----------------
     0.0000000000     0.0000000000     0.0000000000

      Symmetry information
      --------------------

 Group name             C2h       
 Group number             21
 Group order               4
 No. of unique centers     5

      Symmetry unique atoms

     1    2    4    5   10


                                 NWChem DFT Module
                                 -----------------


                                    Transplatin




 Summary of "ao basis" -> "ao basis" (spherical)
 ------------------------------------------------------------------------------
       Tag                 Description            Shells   Functions and Types
 ---------------- ------------------------------  ------  ---------------------
 Pt                        def2-tzvp                14       40   6s4p3d1f
 Cl                        def2-tzvp                13       37   5s5p2d1f
 N                         def2-tzvp                11       31   5s3p2d1f
 H                         def2-tzvp                 4        6   3s1p


      Symmetry analysis of basis
      --------------------------

        ag         72
        au         36
        bg         35
        bu         69

  Caching 1-el integrals 

            General Information
            -------------------
          SCF calculation type: DFT
          Wavefunction type:  closed shell.
          No. of atoms     :    11
          No. of electrons :    72
           Alpha electrons :    36
            Beta electrons :    36
          Charge           :     0
          Spin multiplicity:     1
          Use of symmetry is: on ; symmetry adaption is: on 
          Maximum number of iterations: 100
          AO basis - number of functions:   212
                     number of shells:    86
          Convergence on energy requested:  1.00D-06
          Convergence on density requested:  1.00D-05
          Convergence on gradient requested:  5.00D-04

              XC Information
              --------------
                         PBE0 Method XC Functional
                     Hartree-Fock (Exact) Exchange  0.250          
          PerdewBurkeErnzerhof Exchange Functional  0.750          
            Perdew 1991 LDA Correlation Functional  1.000 local    
           PerdewBurkeErnz. Correlation Functional  1.000 non-local

             Grid Information
             ----------------
          Grid used for XC integration:  medium    
          Radial quadrature: Mura-Knowles        
          Angular quadrature: Lebedev. 
          Tag              B.-S. Rad. Rad. Pts. Rad. Cut. Ang. Pts.
          ---              ---------- --------- --------- ---------
          Pt                  1.35      123           9.0       590
          Cl                  1.00       88          12.0       590
          N                   0.65       49          12.0       434
          H                   0.35       45          13.0       434
          Grid pruning is: on 
          Number of quadrature shells:   350
          Spatial weights used:  Erf1

          Convergence Information
          -----------------------
          Convergence aids based upon iterative change in 
          total energy or number of iterations. 
          Levelshifting, if invoked, occurs when the 
          HOMO/LUMO gap drops below (HL_TOL):  1.00D-02
[...]


      ----------------------
      Optimization converged
      ----------------------


  Step       Energy      Delta E   Gmax     Grms     Xrms     Xmax   Walltime
  ---- ---------------- -------- -------- -------- -------- -------- --------
@    7   -1152.66524982 -4.2D-07  0.00001  0.00000  0.00029  0.00065    268.6
                                     ok       ok       ok       ok  



                                Z-matrix (autoz)
                                -------- 

 Units are Angstrom for bonds and degrees for angles

      Type          Name      I     J     K     L     M      Value     Gradient
      ----------- --------  ----- ----- ----- ----- ----- ---------- ----------
    1 Stretch                  1     2                       2.30101    0.00000
    2 Stretch                  1     3                       2.30101    0.00000
    3 Stretch                  1     4                       2.03617   -0.00000
    4 Stretch                  1     7                       2.03617   -0.00000
    5 Stretch                  4     5                       1.01519   -0.00001
    6 Stretch                  4     6                       1.01519   -0.00001
    7 Stretch                  4    11                       1.01766   -0.00001
    8 Stretch                  7     8                       1.01519   -0.00001
    9 Stretch                  7     9                       1.01519   -0.00001
   10 Stretch                  7    10                       1.01766   -0.00001
   11 Bend                     1     4     5               110.51720   -0.00000
   12 Bend                     1     4     6               110.51720   -0.00000
   13 Bend                     1     4    11               108.68569    0.00000
   14 Bend                     1     7     8               110.51720   -0.00000
   15 Bend                     1     7     9               110.51720   -0.00000
   16 Bend                     1     7    10               108.68569    0.00000
   17 Bend                     2     1     4                90.92265    0.00000
   18 Bend                     2     1     7                89.07735   -0.00000
   19 Bend                     3     1     4                89.07735   -0.00000
   20 Bend                     3     1     7                90.92265    0.00000
   21 Bend                     5     4     6               107.98025    0.00001
   22 Bend                     5     4    11               109.56415    0.00000
   23 Bend                     6     4    11               109.56415    0.00000
   24 Bend                     8     7     9               107.98025    0.00001
   25 Bend                     8     7    10               109.56415    0.00000
   26 Bend                     9     7    10               109.56415    0.00000
   27 Torsion                  2     1     4     5         -59.73493   -0.00000
   28 Torsion                  2     1     4     6          59.73493    0.00000
   29 Torsion                  2     1     4    11         180.00000    0.00000
   30 Torsion                  2     1     7     8         120.26507   -0.00000
   31 Torsion                  2     1     7     9        -120.26507    0.00000
   32 Torsion                  2     1     7    10           0.00000   -0.00000
   33 Torsion                  3     1     4     5         120.26507   -0.00000
   34 Torsion                  3     1     4     6        -120.26507    0.00000
   35 Torsion                  3     1     4    11           0.00000    0.00000
   36 Torsion                  3     1     7     8         -59.73493   -0.00000
   37 Torsion                  3     1     7     9          59.73493    0.00000
   38 Torsion                  3     1     7    10         180.00000   -0.00000
   39 Torsion                  5     4     7     8          60.53015   -0.00000
   40 Torsion                  5     4     7     9         180.00000   -0.00000
   41 Torsion                  5     4     7    10         -59.73493   -0.00000
   42 Torsion                  4     5     1     7         180.00000    0.00000
   43 Torsion                  6     4     7     8         180.00000    0.00000
   44 Torsion                  6     4     7     9         -60.53015    0.00000
   45 Torsion                  6     4     7    10          59.73493    0.00000
   46 Torsion                  4     6     1     7        -180.00000   -0.00000
   47 Torsion                  8     7     4    11         -59.73493   -0.00000
   48 Torsion                  4     1     8     7         180.00000   -0.00000
   49 Torsion                  9     7     4    11          59.73493    0.00000
   50 Torsion                  4     1     9     7        -180.00000    0.00000
   51 Torsion                 10     7     4    11         180.00000   -0.00000
   52 Torsion                  4     1    10     7         180.00000   -0.00000
   53 Torsion                  4    11     1     7         180.00000   -0.00000



                         Geometry "geometry" -> "geometry"
                         ---------------------------------

 Output coordinates in angstroms (scale by  1.889725989 to convert to a.u.)

  No.       Tag          Charge          X              Y              Z
 ---- ---------------- ---------- -------------- -------------- --------------
    1 Pt                  78.0000     0.00000000     0.00000000     0.00000000
    2 Cl                  17.0000     0.03268667    -2.30077471     0.00000000
    3 Cl                  17.0000    -0.03268667     2.30077471     0.00000000
    4 N                    7.0000    -2.03616382     0.00386360     0.00000000
    5 H                    1.0000    -2.39288367    -0.47465975    -0.82120017
    6 H                    1.0000    -2.39288367    -0.47465975     0.82120017
    7 N                    7.0000     2.03616382    -0.00386360     0.00000000
    8 H                    1.0000     2.39288367     0.47465975    -0.82120017
    9 H                    1.0000     2.39288367     0.47465975     0.82120017
   10 H                    1.0000     2.36036834    -0.96849991     0.00000000
   11 H                    1.0000    -2.36036834     0.96849991     0.00000000

      Atomic Mass 
      ----------- 

      Pt               194.964800
      Cl                34.968850
      N                 14.003070
      H                  1.007825


 Effective nuclear repulsion energy (a.u.)    1173.6801771282

            Nuclear Dipole moment (a.u.) 
            ----------------------------
        X                 Y               Z
 ---------------- ---------------- ----------------
     0.0000000000    -0.0000000000     0.0000000000

      Symmetry information
      --------------------

 Group name             C2h       
 Group number             21
 Group order               4
 No. of unique centers     5

      Symmetry unique atoms

     1    2    4    5   10


                Final and change from initial internal coordinates
                --------------------------------------------------



                                Z-matrix (autoz)
                                -------- 

 Units are Angstrom for bonds and degrees for angles

      Type          Name      I     J     K     L     M      Value       Change
      ----------- --------  ----- ----- ----- ----- ----- ---------- ----------
    1 Stretch                  1     2                       2.30101    0.02101
    2 Stretch                  1     3                       2.30101    0.02101
    3 Stretch                  1     4                       2.03617    0.04617
    4 Stretch                  1     7                       2.03617    0.04617
    5 Stretch                  4     5                       1.01519    0.01519
    6 Stretch                  4     6                       1.01519    0.01519
    7 Stretch                  4    11                       1.01766    0.01766
    8 Stretch                  7     8                       1.01519    0.01519
    9 Stretch                  7     9                       1.01519    0.01519
   10 Stretch                  7    10                       1.01766    0.01766
   11 Bend                     1     4     5               110.51720    1.04598
   12 Bend                     1     4     6               110.51720    1.04598
   13 Bend                     1     4    11               108.68569   -0.78553
   14 Bend                     1     7     8               110.51720    1.04598
   15 Bend                     1     7     9               110.51720    1.04598
   16 Bend                     1     7    10               108.68569   -0.78553
   17 Bend                     2     1     4                90.92265    0.92265
   18 Bend                     2     1     7                89.07735   -0.92265
   19 Bend                     3     1     4                89.07735   -0.92265
   20 Bend                     3     1     7                90.92265    0.92265
   21 Bend                     5     4     6               107.98025   -1.67229
   22 Bend                     5     4    11               109.56415    0.18367
   23 Bend                     6     4    11               109.56415    0.18367
   24 Bend                     8     7     9               107.98025   -1.67229
   25 Bend                     8     7    10               109.56415    0.18367
   26 Bend                     9     7    10               109.56415    0.18367
   27 Torsion                  2     1     4     5         -59.73493    0.37617
   28 Torsion                  2     1     4     6          59.73493   -0.37617
   29 Torsion                  2     1     4    11         180.00000    0.00000
   30 Torsion                  2     1     7     8         120.26507    0.37617
   31 Torsion                  2     1     7     9        -120.26507   -0.37617
   32 Torsion                  2     1     7    10           0.00000    0.00000
   33 Torsion                  3     1     4     5         120.26507    0.37617
   34 Torsion                  3     1     4     6        -120.26507   -0.37617
   35 Torsion                  3     1     4    11           0.00000    0.00000
   36 Torsion                  3     1     7     8         -59.73493    0.37617
   37 Torsion                  3     1     7     9          59.73493   -0.37617
   38 Torsion                  3     1     7    10         180.00000    0.00000
   39 Torsion                  5     4     7     8          60.53015    0.75235
   40 Torsion                  5     4     7     9         180.00000    0.00000
   41 Torsion                  5     4     7    10         -59.73493    0.37617
   42 Torsion                  4     5     1     7         180.00000    0.00000
   43 Torsion                  6     4     7     8         180.00000    0.00000
   44 Torsion                  6     4     7     9         -60.53015   -0.75235
   45 Torsion                  6     4     7    10          59.73493   -0.37617
   46 Torsion                  4     6     1     7        -180.00000    0.00000
   47 Torsion                  8     7     4    11         -59.73493    0.37617
   48 Torsion                  4     1     8     7         180.00000    0.00000
   49 Torsion                  9     7     4    11          59.73493   -0.37617
   50 Torsion                  4     1     9     7        -180.00000    0.00000
   51 Torsion                 10     7     4    11         180.00000    0.00000
   52 Torsion                  4     1    10     7         180.00000    0.00000
   53 Torsion                  4    11     1     7         180.00000    0.00000

 ==============================================================================
                                internuclear distances
 ------------------------------------------------------------------------------
       center one      |      center two      | atomic units |  angstroms
 ------------------------------------------------------------------------------
    2 Cl               |   1 Pt               |     4.34827  |     2.30101
    3 Cl               |   1 Pt               |     4.34827  |     2.30101
    4 N                |   1 Pt               |     3.84780  |     2.03617
    5 H                |   4 N                |     1.91842  |     1.01519
    6 H                |   4 N                |     1.91842  |     1.01519
    7 N                |   1 Pt               |     3.84780  |     2.03617
    8 H                |   7 N                |     1.91842  |     1.01519
    9 H                |   7 N                |     1.91842  |     1.01519
   10 H                |   7 N                |     1.92310  |     1.01766
   11 H                |   4 N                |     1.92310  |     1.01766
 ------------------------------------------------------------------------------
                         number of included internuclear distances:         10
 ==============================================================================



 ==============================================================================
                                 internuclear angles
 ------------------------------------------------------------------------------
        center 1       |       center 2       |       center 3       |  degrees
 ------------------------------------------------------------------------------
    2 Cl               |   1 Pt               |   3 Cl               |   180.00
    2 Cl               |   1 Pt               |   4 N                |    90.92
    2 Cl               |   1 Pt               |   7 N                |    89.08
    3 Cl               |   1 Pt               |   4 N                |    89.08
    3 Cl               |   1 Pt               |   7 N                |    90.92
    4 N                |   1 Pt               |   7 N                |   180.00
    1 Pt               |   4 N                |   5 H                |   110.52
    1 Pt               |   4 N                |   6 H                |   110.52
    1 Pt               |   4 N                |  11 H                |   108.69
    5 H                |   4 N                |   6 H                |   107.98
    5 H                |   4 N                |  11 H                |   109.56
    6 H                |   4 N                |  11 H                |   109.56
    1 Pt               |   7 N                |   8 H                |   110.52
    1 Pt               |   7 N                |   9 H                |   110.52
    1 Pt               |   7 N                |  10 H                |   108.69
    8 H                |   7 N                |   9 H                |   107.98
    8 H                |   7 N                |  10 H                |   109.56
    9 H                |   7 N                |  10 H                |   109.56
 ------------------------------------------------------------------------------
                            number of included internuclear angles:         18
 ==============================================================================




 Task  times  cpu:      268.1s     wall:      268.6s


                                NWChem Input Module
                                -------------------


 Summary of allocated global arrays
-----------------------------------
  No active global arrays



                         GA Statistics for process    0
                         ------------------------------

       create   destroy   get      put      acc     scatter   gather  read&inc
calls: 1558     1558     1.01e+07 5.64e+04 2.42e+05    0        0     2.98e+04 
number of processes/call 1.51e+11 9.31e+13 2.19e+13 0.00e+00 0.00e+00
bytes total:             3.59e+09 4.41e+08 1.00e+09 0.00e+00 0.00e+00 2.39e+05
bytes remote:            0.00e+00 0.00e+00 0.00e+00 0.00e+00 0.00e+00 0.00e+00
Max memory consumed for GA by this process: 13303424 bytes

MA_summarize_allocated_blocks: starting scan ...
MA_summarize_allocated_blocks: scan completed: 0 heap blocks, 0 stack blocks
MA usage statistics:

	allocation statistics:
					      heap	     stack
					      ----	     -----
	current number of blocks	         0	         0
	maximum number of blocks	        42	        58
	current total bytes		         0	         0
	maximum total bytes		1046705088	  54053992
	maximum total K-bytes		   1046706	     54054
	maximum total M-bytes		      1047	        55


                                     CITATION
                                     --------
                Please cite the following reference when publishing
                           results obtained with NWChem:

          E. Apr, E. J. Bylaska, W. A. de Jong, N. Govind, K. Kowalski,
       T. P. Straatsma, M. Valiev, H. J. J. van Dam, Y. Alexeev, J. Anchell,
       V. Anisimov, F. W. Aquino, R. Atta-Fynn, J. Autschbach, N. P. Bauman,
     J. C. Becca, D. E. Bernholdt, K. Bhaskaran-Nair, S. Bogatko, P. Borowski,
        J. Boschen, J. Brabec, A. Bruner, E. Caut, Y. Chen, G. N. Chuev,
      C. J. Cramer, J. Daily, M. J. O. Deegan, T. H. Dunning Jr., M. Dupuis,
   K. G. Dyall, G. I. Fann, S. A. Fischer, A. Fonari, H. Frchtl, L. Gagliardi,
      J. Garza, N. Gawande, S. Ghosh, K. Glaesemann, A. W. Gtz, J. Hammond,
       V. Helms, E. D. Hermes, K. Hirao, S. Hirata, M. Jacquelin, L. Jensen,
   B. G. Johnson, H. Jnsson, R. A. Kendall, M. Klemm, R. Kobayashi, V. Konkov,
      S. Krishnamoorthy, M. Krishnan, Z. Lin, R. D. Lins, R. J. Littlefield,
      A. J. Logsdail, K. Lopata, W. Ma, A. V. Marenich, J. Martin del Campo,
   D. Mejia-Rodriguez, J. E. Moore, J. M. Mullin, T. Nakajima, D. R. Nascimento,
    J. A. Nichols, P. J. Nichols, J. Nieplocha, A. Otero-de-la-Roza, B. Palmer,
    A. Panyala, T. Pirojsirikul, B. Peng, R. Peverati, J. Pittner, L. Pollack,
   R. M. Richard, P. Sadayappan, G. C. Schatz, W. A. Shelton, D. W. Silverstein,
   D. M. A. Smith, T. A. Soares, D. Song, M. Swart, H. L. Taylor, G. S. Thomas,
            V. Tipparaju, D. G. Truhlar, K. Tsemekhman, T. Van Voorhis,
     . Vzquez-Mayagoitia, P. Verma, O. Villa, A. Vishnu, K. D. Vogiatzis,
        D. Wang, J. H. Weare, M. J. Williamson, T. L. Windus, K. Woliski,
        A. T. Wong, Q. Wu, C. Yang, Q. Yu, M. Zacharias, Z. Zhang, Y. Zhao,
                                and R. J. Harrison
                        "NWChem: Past, present, and future
                         J. Chem. Phys. 152, 184102 (2020)
                               doi:10.1063/5.0004997

                                      AUTHORS
                                      -------
     E. Apra, E. J. Bylaska, N. Govind, K. Kowalski, M. Valiev, W. A. de Jong,
      T. P. Straatsma, H. J. J. van Dam, D. Wang, T. L. Windus, N. P. Bauman,
       A. Panyala, J. Hammond, J. Autschbach, K. Bhaskaran-Nair, J. Brabec,
    K. Lopata, S. A. Fischer, S. Krishnamoorthy, M. Jacquelin, W. Ma, M. Klemm,
       O. Villa, Y. Chen, V. Anisimov, F. Aquino, S. Hirata, M. T. Hackler,
           Eric Hermes, L. Jensen, J. E. Moore, J. C. Becca, V. Konjkov,
            D. Mejia-Rodriguez, T. Risthaus, M. Malagoli, A. Marenich,
   A. Otero-de-la-Roza, J. Mullin, P. Nichols, R. Peverati, J. Pittner, Y. Zhao,
        P.-D. Fan, A. Fonari, M. J. Williamson, R. J. Harrison, J. R. Rehr,
      M. Dupuis, D. Silverstein, D. M. A. Smith, J. Nieplocha, V. Tipparaju,
      M. Krishnan, B. E. Van Kuiken, A. Vazquez-Mayagoitia, M. Swart, Q. Wu,
   T. Van Voorhis, A. A. Auer, M. Nooijen, L. D. Crosby, E. Brown, G. Cisneros,
     G. I. Fann, H. Fruchtl, J. Garza, K. Hirao, R. A. Kendall, J. A. Nichols,
       K. Tsemekhman, K. Wolinski, J. Anchell, D. E. Bernholdt, P. Borowski,
       T. Clark, D. Clerc, H. Dachsel, M. J. O. Deegan, K. Dyall, D. Elwood,
      E. Glendening, M. Gutowski, A. C. Hess, J. Jaffe, B. G. Johnson, J. Ju,
        R. Kobayashi, R. Kutteh, Z. Lin, R. Littlefield, X. Long, B. Meng,
      T. Nakajima, S. Niu, L. Pollack, M. Rosing, K. Glaesemann, G. Sandrone,
      M. Stave, H. Taylor, G. Thomas, J. H. van Lenthe, A. T. Wong, Z. Zhang.

 Total times  cpu:      268.1s     wall:      268.6s
