[Molden Format]
[Title]
[Atoms] AU
Pt     1    78 -0.84977969007965E-05 -0.23247227214563E-06 -0.40875944856642E+00
Cl     2    17  0.30471625708180E-05  0.30972100596017E+01  0.24665299172234E+01
Cl     3    17  0.30738918184050E-05 -0.30972096612352E+01  0.24665306980507E+01
N      4     7 -0.31550448709757E-06  0.30842785399982E+01 -0.30632584538412E+01
H      5     1  0.15671292969080E+01  0.32172940641412E+01 -0.41634794967044E+01
H      6     1 -0.15671280436902E+01  0.32172966869176E+01 -0.41634828439510E+01
N      7     7 -0.32027321053063E-06 -0.30842786212674E+01 -0.30632587449493E+01
H      8     1 -0.15671280952254E+01 -0.32172966611845E+01 -0.41634830600291E+01
H      9     1  0.15671292593274E+01 -0.32172940264689E+01 -0.41634797876116E+01
H     10     1  0.28232273246209E-06  0.45428782038860E+01 -0.17867704770645E+01
H     11     1  0.31287776802805E-06 -0.45428783519163E+01 -0.17867708932258E+01
[GTO]
           1 0
 d           3   1.0000000000000000     
   3.5937624367287846      -0.31035211838260673     
  0.53606998653039550       0.32609814727852926     
  0.26289042264190760        7.4004197946130043E-002
 s           6   1.0000000000000000     
   3.1465859922496615        7.6686180212964866E-003
   1.4746231587420333        5.0417864351450868E-002
  0.43065492463249266      -0.28647539917576154     
  0.26989229436692297       -6.0574700952769039E-002
  0.16185891863415472       0.24234163995579219     
  0.10231677957616286        4.6706876623022170E-002
 p           6   1.0000000000000000     
   1.7645761510757125        8.0669743901897722E-003
  0.36761417354379322       -5.2344260129921348E-002
  0.21512332135733278       -4.7326938541849446E-002
  0.12085241060365114        4.7557027694460630E-002
   7.8032102309244192E-002   3.9693308360115788E-002
   4.9597612914792630E-002   3.6416936493205063E-003

           2 0
 s           4   1.0000000000000000     
   9.3467486618986779      -0.12555278505223622     
   2.6327495395516101      -0.25402983196719575     
  0.47209293248713996       0.30518456643075598     
  0.23227164976623679        8.5596618307884023E-002
 p           4   1.0000000000000000     
   8.9665386862065208      -0.31720921506945488     
  0.92660174979495169       0.35703112638356727     
  0.41879233228792762       0.28077153700708535     
  0.20245345453703623        4.1521319221857041E-002
 d           3   1.0000000000000000     
   3.2059774565484096        2.1323149410288100     
   1.0052389755903053       0.97137517608754442     
  0.39156535544886489       0.12941908235265207     

           3 0
 s           4   1.0000000000000000     
   9.3467486618986779      -0.12555278505223622     
   2.6327495395516101      -0.25402983196719575     
  0.47209293248713996       0.30518456643075598     
  0.23227164976623679        8.5596618307884023E-002
 p           4   1.0000000000000000     
   8.9665386862065208      -0.31720921506945488     
  0.92660174979495169       0.35703112638356727     
  0.41879233228792762       0.28077153700708535     
  0.20245345453703623        4.1521319221857041E-002
 d           3   1.0000000000000000     
   3.2059774565484096        2.1323149410288100     
   1.0052389755903053       0.97137517608754442     
  0.39156535544886489       0.12941908235265207     

           4 0
 s           4   1.0000000000000000     
   63.594024466941008      -0.19234388414721629     
   10.951417231523665      -0.23478107924953728     
  0.87999310257376984       0.37593753901700888     
  0.33538715296521110       0.14982889271862770     
 p           4   1.0000000000000000     
   7.2965040481495080       0.97658666315667420     
   1.8918745450712575       0.90372226730345739     
  0.66694432110824120       0.47404958461536373     
  0.26552202674130870        7.1516067715011844E-002

           5 0
 s           3   1.0000000000000000     
   3.3702276975336001       0.27359110588908298     
  0.61389118221497996       0.26460540653860526     
  0.16614291148415999        8.2465947534082318E-002

           6 0
 s           3   1.0000000000000000     
   3.3702276975336001       0.27359110588908298     
  0.61389118221497996       0.26460540653860526     
  0.16614291148415999        8.2465947534082318E-002

           7 0
 s           4   1.0000000000000000     
   63.594024466941008      -0.19234388414721629     
   10.951417231523665      -0.23478107924953728     
  0.87999310257376984       0.37593753901700888     
  0.33538715296521110       0.14982889271862770     
 p           4   1.0000000000000000     
   7.2965040481495080       0.97658666315667420     
   1.8918745450712575       0.90372226730345739     
  0.66694432110824120       0.47404958461536373     
  0.26552202674130870        7.1516067715011844E-002

           8 0
 s           3   1.0000000000000000     
   3.3702276975336001       0.27359110588908298     
  0.61389118221497996       0.26460540653860526     
  0.16614291148415999        8.2465947534082318E-002

           9 0
 s           3   1.0000000000000000     
   3.3702276975336001       0.27359110588908298     
  0.61389118221497996       0.26460540653860526     
  0.16614291148415999        8.2465947534082318E-002

          10 0
 s           3   1.0000000000000000     
   3.3702276975336001       0.27359110588908298     
  0.61389118221497996       0.26460540653860526     
  0.16614291148415999        8.2465947534082318E-002

          11 0
 s           3   1.0000000000000000     
   3.3702276975336001       0.27359110588908298     
  0.61389118221497996       0.26460540653860526     
  0.16614291148415999        8.2465947534082318E-002

[MO]
Sym=     1a
Ene=   -1.0009588222246111     
Spin= Alpha
Occup=     2.00000000
           1   2.1227438084399735E-002
           2  -1.3022968228648815E-002
           3  -8.2044698557509205E-003
           4   1.4607592449103786E-010
           5  -1.3325105817359419E-007
           6  -7.7582708386349590E-006
           7   6.2734650222031174E-002
           8   3.1317573020668967E-007
           9   1.7258987035947783E-005
          10   8.4650532640180909E-002
          11  0.66733715588668230     
          12  -1.4596595910294111E-009
          13   3.0909837814740364E-002
          14  -1.2230722084353440E-002
          15  -7.7711193977898969E-004
          16  -3.5391950759466693E-003
          17   4.3163070157256588E-003
          18  -2.3568583092241714E-009
          19   1.2972044905714926E-008
          20  -1.2578853081452912E-003
          21  0.66711235456044371     
          22  -1.3582651863358159E-009
          23  -3.0903883413197424E-002
          24  -1.2227247816259449E-002
          25  -7.7624295892371031E-004
          26  -3.5402931796934363E-003
          27   4.3165361386171466E-003
          28   2.4036951998931899E-009
          29   1.2976254603598537E-008
          30   1.2585536328348595E-003
          31   5.3278829306132591E-003
          32  -2.8922044023092643E-008
          33  -3.3660044388551711E-003
          34   2.1257700413162472E-003
          35   6.8748539615575820E-003
          36   6.8749193754438021E-003
          37   5.3313612222079271E-003
          38  -2.8897544423313267E-008
          39   3.3686110239386229E-003
          40   2.1276891181306878E-003
          41   6.8781750671789875E-003
          42   6.8781098203696640E-003
          43  -2.1788126155813888E-003
          44  -2.1718741091027514E-003
Sym=     2a
Ene=   -1.0009296762784352     
Spin= Alpha
Occup=     2.00000000
           1  -3.5164026359872303E-006
           2   2.1476912947235306E-006
           3   1.3687113412636996E-006
           4  -1.4102057463560801E-007
           5   1.8778365000968781E-010
           6  -4.6859349294131131E-002
           7  -1.0391661178649417E-005
           8  -4.0937751531060826E-010
           9  0.10413223321113263     
          10  -1.4030916049068143E-005
          11  0.67859542496347913     
          12   5.3280458613013985E-009
          13   1.7968627351906918E-002
          14  -1.0461444081578973E-002
          15  -2.6225954995574975E-003
          16   3.3182766572717394E-003
          17  -6.9568115771424192E-004
          18   1.3045385486652112E-008
          19  -1.6111516182981344E-009
          20   2.0152489714757612E-003
          21 -0.67881642182090907     
          22  -5.3213068418208227E-009
          23   1.7978861231529898E-002
          24   1.0465488228767788E-002
          25   2.6228522411723496E-003
          26  -3.3171038725040786E-003
          27   6.9425163133172930E-004
          28   1.3095170456979866E-008
          29   1.5763053512582909E-009
          30   2.0148358369583667E-003
          31  -1.0498073487036319E-002
          32   4.0599831793024587E-008
          33   7.8665769137456678E-003
          34  -5.8012758200016489E-003
          35  -9.8207955241882191E-003
          36  -9.8208267292520437E-003
          37   1.0496307555634460E-002
          38  -4.0525009632073588E-008
          39   7.8654574673391441E-003
          40   5.8005780141109327E-003
          41   9.8185456082517577E-003
          42   9.8185142473752474E-003
          43  -2.0924478168398705E-002
          44   2.0925199777137339E-002
Sym=     3a
Ene=  -0.65739830303857161     
Spin= Alpha
Occup=     2.00000000
           1  -1.6126145319012387E-002
           2   1.2976139308611925E-002
           3   3.1500060104004603E-003
           4  -1.7373559572463713E-011
           5  -3.8699483370114090E-008
           6   5.7344171875234590E-008
           7  -9.3998307757461042E-002
           8  -1.6284742967733471E-007
           9   1.3708940449431893E-007
          10   6.1762794157533919E-002
          11   6.4849129275910420E-003
          12   2.7646062229218909E-008
          13   5.7854953827363442E-003
          14   1.3519324679216316E-002
          15  -6.0765836108547821E-004
          16  -1.0905456543720460E-003
          17   1.6982040154575242E-003
          18  -1.1853552930041452E-008
          19  -4.2661759734295978E-009
          20   1.2141285654045627E-003
          21   6.4850922846224641E-003
          22   2.7712638715462676E-008
          23  -5.7854860490101885E-003
          24   1.3519346562362575E-002
          25  -6.0766055267675331E-004
          26  -1.0905527698236823E-003
          27   1.6982133225004357E-003
          28   1.1864667771688394E-008
          29  -4.2644261500271170E-009
          30  -1.2141323307898791E-003
          31 -0.42422029701313918     
          32  -1.4990941910147821E-007
          33  -3.9695560750082903E-002
          34   6.6284502303201306E-002
          35 -0.16066462393532630     
          36 -0.16066454411427211     
          37 -0.42422273754117779     
          38  -1.5121127051108514E-007
          39   3.9695915895379047E-002
          40   6.6284932568025950E-002
          41 -0.16066549590385554     
          42 -0.16066558066873243     
          43 -0.12265436272346578     
          44 -0.12265510000050438     
Sym=     4a
Ene=  -0.65390550396594249     
Spin= Alpha
Occup=     2.00000000
           1  -4.5520912428489126E-008
           2   3.9878003250010317E-008
           3   5.6429091784788090E-009
           4   1.0966054363999263E-007
           5  -4.6858077728711503E-011
           6  -1.8583897592814549E-002
           7  -2.6457787512770120E-007
           8  -1.0743134381933249E-010
           9  -4.8086357406001756E-002
          10   1.7641394841651226E-007
          11   3.4659410705784877E-002
          12   1.1111677758448257E-009
          13  -1.3217773923429707E-003
          14   5.5886946307790817E-003
          15  -3.1134129429764948E-004
          16  -1.2486728669376590E-003
          17   1.5600141612353085E-003
          18   5.7210974006501698E-009
          19   1.0264945707069652E-008
          20   6.8648414119662471E-004
          21  -3.4659358741304394E-002
          22  -1.1191366525802616E-009
          23  -1.3218087525058830E-003
          24  -5.5886061356199600E-003
          25   3.1133786880299690E-004
          26   1.2486679839947069E-003
          27  -1.5600058527977037E-003
          28   5.7407954350621514E-009
          29  -1.0289613795340861E-008
          30   6.8647674625500949E-004
          31 -0.42893906100263918     
          32  -1.7365945716611012E-007
          33  -6.3197947508189106E-002
          34   7.8435779927485599E-002
          35 -0.16927698246468706     
          36 -0.16927690812243765     
          37  0.42893664996816339     
          38   1.7509168736420412E-007
          39  -6.3197729993078849E-002
          40  -7.8435389024655591E-002
          41  0.16927598406250799     
          42  0.16927606377508422     
          43 -0.12797137399865682     
          44  0.12797069403967051     
Sym=     5a
Ene=  -0.56804845467110254     
Spin= Alpha
Occup=     2.00000000
           1  -1.5519370706896002E-008
           2   3.9558622805830759E-008
           3  -2.4039252098934754E-008
           4  -1.2205719019205900E-008
           5  -6.5149588066665404E-003
           6   7.5974817534324834E-010
           7   2.3577712652701057E-007
           8  -7.2332026501885194E-002
           9  -1.8850760641436869E-009
          10  -7.7169967872245063E-008
          11   1.3336486217194444E-007
          12  -1.0602514852534880E-002
          13  -1.5800378019468027E-008
          14   7.0018498930658663E-008
          15  -1.1307627098933019E-008
          16   1.2197886787710969E-008
          17  -8.9025968877794957E-010
          18  -2.7703512858894106E-003
          19  -1.6036417561759509E-003
          20   9.5820408542811609E-009
          21   1.3084720128797854E-007
          22  -1.0602525974396039E-002
          23   1.5575345712355446E-008
          24   6.7646934427267714E-008
          25  -1.1418900370006566E-008
          26   1.2300375445163957E-008
          27  -8.8147507515739181E-010
          28   2.7703509258657096E-003
          29  -1.6036415081264260E-003
          30  -9.5484673862019960E-009
          31   1.7188299093338164E-008
          32 -0.45747366927139566     
          33   1.9176026493033093E-007
          34  -9.1375292578954891E-007
          35 -0.25993441227194075     
          36  0.25993482987009348     
          37   2.1592473867672851E-008
          38 -0.45747622289703077     
          39  -2.0116704859565348E-007
          40  -8.8741078738111795E-007
          41  0.25993627433413541     
          42 -0.25993586274425312     
          43  -3.4871258773819521E-007
          44  -3.3690947685547916E-007
Sym=     6a
Ene=  -0.56421301331452556     
Spin= Alpha
Occup=     2.00000000
           1   3.3634590000604071E-010
           2  -5.4275499593111661E-010
           3   2.0640909592507590E-010
           4  -4.0248970713401000E-003
           5   1.6893719426755056E-008
           6  -7.7692223399859816E-008
           7   7.0312279869608676E-009
           8   1.9979317053204339E-007
           9   2.7690190054287592E-009
          10  -7.0373098797791695E-010
          11  -6.8089930537631327E-008
          12   3.3498993840049215E-003
          13   1.5655013756445561E-008
          14  -1.5336612067513175E-007
          15  -5.2034429774539360E-009
          16  -1.3313695738629273E-009
          17   6.5348125513168634E-009
          18   6.1724320523349474E-005
          19  -3.0088753692239831E-004
          20  -2.8822455236334541E-009
          21   6.2085664460197715E-008
          22  -3.3498321361588677E-003
          23   1.7495446428682880E-008
          24   1.4569511404413709E-007
          25   5.1408708629721463E-009
          26   1.1083982205334657E-009
          27  -6.2492690835056124E-009
          28   6.1708883549875813E-005
          29   3.0089568675405903E-004
          30  -2.6130825823384679E-009
          31   6.8694208790245985E-008
          32  0.46736521162418532     
          33   7.2372037773886580E-008
          34   1.5552748144549413E-006
          35  0.26561902582708102     
          36 -0.26561986119108494     
          37  -6.0205660836109624E-008
          38 -0.46736271360888471     
          39   5.2552366452641467E-008
          40  -1.4969086456027626E-006
          41  0.26561842413877224     
          42 -0.26561761596704847     
          43   7.8722765997377387E-007
          44  -7.5563451439561167E-007
Sym=     7a
Ene=  -0.55978146174932841     
Spin= Alpha
Occup=     2.00000000
           1  -7.9486289452016332E-003
           2   9.2165010090984271E-003
           3  -1.2678720638967939E-003
           4  -4.0167051112739994E-010
           5   1.0608879896025670E-007
           6  -2.5574479879035292E-007
           7  -7.3439553115924330E-002
           8   1.2430109704663528E-007
           9   4.3079075104507674E-007
          10  -3.0835229129089481E-003
          11   4.4003168795674452E-002
          12   1.1041758451509547E-007
          13   7.1616411379330815E-003
          14   5.7113686844951120E-002
          15   7.6576110816033160E-004
          16   1.6692288857056781E-003
          17  -2.4349899938660097E-003
          18   9.3192345464721277E-009
          19  -5.8879567935635969E-011
          20   1.9531360115428412E-003
          21   4.4003903244090169E-002
          22   1.1020108475834927E-007
          23  -7.1615364684285360E-003
          24   5.7114485225242324E-002
          25   7.6578659341150230E-004
          26   1.6692097990063008E-003
          27  -2.4349963924178031E-003
          28  -9.3204945145173230E-009
          29  -2.7615659334547818E-011
          30  -1.9531565154473156E-003
          31  -4.7913844534911841E-002
          32   7.7244039467632775E-007
          33 -0.20280292665419147     
          34 -0.42286604234544778     
          35  0.14195385169835825     
          36  0.14195324011438487     
          37  -4.7914430761355861E-002
          38   7.1019176620517010E-007
          39  0.20280681129374203     
          40 -0.42287340111813165     
          41  0.14195581995759574     
          42  0.14195637431559874     
          43 -0.29244728370630718     
          44 -0.29245245425192828     
Sym=     8a
Ene=  -0.55866979682616402     
Spin= Alpha
Occup=     2.00000000
           1  -7.0804359202054980E-008
           2   8.3374767720544504E-008
           3  -1.2570408518489524E-008
           4   6.7157911840878955E-008
           5   8.0282003125992744E-012
           6   2.9709568806743740E-002
           7  -6.5984878121079245E-007
           8   2.2879240074573808E-009
           9  -4.7903615402074412E-002
          10  -1.5111915005819321E-008
          11   4.2964194033065554E-002
          12   6.9686167616549581E-008
          13  -6.2496380246916282E-003
          14   4.8857298338630638E-002
          15   1.5624894785588239E-003
          16  -9.7087706126713176E-004
          17  -5.9161241729169213E-004
          18  -3.9768404647337270E-010
          19  -5.2300619496479193E-010
          20   1.2474244285550751E-003
          21  -4.2963378534362176E-002
          22  -6.9108485358880844E-008
          23  -6.2497619002261735E-003
          24  -4.8856208553613618E-002
          25  -1.5624739480281564E-003
          26   9.7090787762384157E-004
          27   5.9156607040431494E-004
          28  -5.7210542392933018E-010
          29   6.2446487065123879E-010
          30   1.2473862090440384E-003
          31  -3.5214788056969315E-002
          32   1.4276761481740697E-006
          33 -0.21652449328431514     
          34 -0.41632590997052060     
          35  0.14357591999759853     
          36  0.14357455765724333     
          37   3.5213907071256212E-002
          38  -1.3995208700189973E-006
          39 -0.21652098681011681     
          40  0.41631838503149021     
          41 -0.14357204974345450     
          42 -0.14357339352419327     
          43 -0.29182113602380128     
          44  0.29181596985439012     
Sym=     9a
Ene=  -0.51979062703338452     
Spin= Alpha
Occup=     2.00000000
           1  -5.3371942868564073E-002
           2   4.1128159517050497E-002
           3   1.2243783351513576E-002
           4   1.1841861486608507E-010
           5  -4.7321941474793554E-007
           6   4.5709769356086728E-008
           7  0.34797813474064321     
           8   1.4063993356662077E-007
           9  -1.6757050756300504E-008
          10 -0.10552524313427414     
          11  -5.0942969982728285E-002
          12  -3.2612756112406387E-007
          13 -0.10136177293954028     
          14 -0.10643449969375475     
          15   5.8209517876766878E-004
          16  -2.9946665421650785E-003
          17   2.4125713633974095E-003
          18  -1.6983509264016947E-009
          19   6.9290669839024501E-009
          20  -1.3122756987450266E-003
          21  -5.0942977909326746E-002
          22  -3.2693782966692569E-007
          23  0.10136172801896198     
          24 -0.10643453318551023     
          25   5.8209417364156490E-004
          26  -2.9946634267181251E-003
          27   2.4125692530765604E-003
          28   1.7101346597901079E-009
          29   6.9371623624819114E-009
          30   1.3122769446113514E-003
          31  0.10490049753379212     
          32  -4.8508691687646289E-007
          33 -0.47705788919280490     
          34  0.20187655347240888     
          35  -6.3897838772933702E-002
          36  -6.3897954882041960E-002
          37  0.10490058847557338     
          38  -4.7667365632437531E-007
          39  0.47705806712166382     
          40  0.20187674139909215     
          41  -6.3897994977421588E-002
          42  -6.3897872983658094E-002
          43 -0.11520997086071018     
          44 -0.11520996708986804     
Sym=    10a
Ene=  -0.47637728052184208     
Spin= Alpha
Occup=     2.00000000
           1  -4.5431889126671084E-009
           2   3.6998350767018983E-008
           3  -3.2455161854351878E-008
           4   8.5416322755279713E-007
           5  -3.4988437135322053E-011
           6 -0.27382359305761395     
           7   8.0844212661072880E-008
           8  -3.2825305790037775E-010
           9   9.7201686111945698E-002
          10  -1.5981627660144326E-008
          11  -1.6700106798706926E-002
          12  -8.5034715827575077E-009
          13   1.9102074488458610E-003
          14  -2.9576368708978090E-002
          15  -2.5310175641682143E-003
          16   2.8015527543276525E-003
          17  -2.7053519015943824E-004
          18   1.9641003139915124E-008
          19   8.8950204294374186E-009
          20   2.5422276981264115E-003
          21   1.6700064874252619E-002
          22   8.4670479781938194E-009
          23   1.9103287001487931E-003
          24   2.9576259550848662E-002
          25   2.5310168733889268E-003
          26  -2.8015561285566438E-003
          27   2.7053925516771745E-004
          28   1.9700240923582926E-008
          29  -8.9284226263346957E-009
          30   2.5422281434117049E-003
          31  0.22227939016037226     
          32  -6.6236502184306604E-007
          33 -0.51713400608902027     
          34  0.23810915838186236     
          35  -6.0938179852122618E-002
          36  -6.0938176499180763E-002
          37 -0.22227936324490918     
          38   6.5751060537086172E-007
          39 -0.51713382280553388     
          40 -0.23810916472145616     
          41   6.0938161737830045E-002
          42   6.0938163762412706E-002
          43  -9.4803127714327751E-002
          44   9.4803066411956072E-002
Sym=    11a
Ene=  -0.41020789965255516     
Spin= Alpha
Occup=     2.00000000
           1  -4.0212655281855608E-002
           2   4.9240129871162011E-002
           3  -9.0274745893064029E-003
           4   1.7027256516721289E-009
           5  -2.1450942929662550E-006
           6  -7.9413715168342608E-008
           7 -0.20490063706957973     
           8   4.6093508239636187E-007
           9  -5.4345227575327645E-009
          10 -0.11273422341632114     
          11   8.4585256951539275E-002
          12   1.9113471817473988E-006
          13  0.52813648371040567     
          14  0.25395817080893557     
          15  -5.2344240213525756E-003
          16   2.2217701482711946E-002
          17  -1.6983277461359372E-002
          18   6.0645959849081360E-008
          19  -4.1867847442543761E-008
          20  -6.1073921543339932E-003
          21   8.4585268690070631E-002
          22   1.9142405866603362E-006
          23 -0.52813628581182770     
          24  0.25395830412657300     
          25  -5.2344186815335685E-003
          26   2.2217695893499673E-002
          27  -1.6983277211966102E-002
          28  -6.0761795133258925E-008
          29  -4.1929840558731170E-008
          30   6.1073775203138725E-003
          31  0.12785127555453007     
          32  -4.4759245927748516E-007
          33 -0.19291466347180106     
          34  0.14016219389815307     
          35  -4.0175799591013493E-002
          36  -4.0175549380862367E-002
          37  0.12785125437221628     
          38  -4.4578300959573169E-007
          39  0.19291459146746653     
          40  0.14016220488615036     
          41  -4.0175539472609517E-002
          42  -4.0175790825639400E-002
          43   2.7928495592715731E-003
          44   2.7928465350780334E-003
Sym=    12a
Ene=  -0.39613480698538994     
Spin= Alpha
Occup=     2.00000000
           1  -2.0694291978109373E-009
           2   2.0662499523752248E-007
           3  -2.0455556603971153E-007
           4   4.1726715456549042E-006
           5  -1.1725481112340961E-009
           6  0.40547948740215328     
           7  -4.0348933069566156E-008
           8   3.9790735388768861E-010
           9   7.7432507551708857E-002
          10  -6.1376154089631818E-009
          11  -7.3668078681961818E-002
          12  -8.7589273197251309E-007
          13 -0.30850278993471519     
          14 -0.47720304473850850     
          15  -1.2616781125903438E-003
          16  -1.5435747487334396E-002
          17   1.6697425599924740E-002
          18  -2.1077837687852431E-008
          19   1.6148594515260191E-008
          20  -6.1274870847824259E-003
          21   7.3668099680712779E-002
          22   8.8288960854377466E-007
          23 -0.30850275728975568     
          24  0.47720311380846586     
          25   1.2616774881939671E-003
          26   1.5435744222131207E-002
          27  -1.6697421710325174E-002
          28  -2.1294822909989613E-008
          29  -1.6285051718722616E-008
          30  -6.1274925829657113E-003
          31   1.3482928797884456E-002
          32  -2.4005035223746456E-007
          33 -0.13947197829697089     
          34   2.5423401392803663E-002
          35   5.1298241755106389E-003
          36   5.1302526235675622E-003
          37  -1.3482933691301621E-002
          38   2.3921368429257932E-007
          39 -0.13947193205972122     
          40  -2.5423449375880678E-002
          41  -5.1302343133757932E-003
          42  -5.1298064227620396E-003
          43  -1.6813991750119994E-002
          44   1.6813937178935357E-002
Sym=    13a
Ene=  -0.39102752151678705     
Spin= Alpha
Occup=     2.00000000
           1   2.3242983245985450E-006
           2   2.7031844316486550E-006
           3  -5.0274827562472001E-006
           4   2.1047279332372501E-007
           5  0.39244634797121286     
           6   7.1305519297147563E-011
           7   6.5659696656446103E-008
           8  0.16762095613620551     
           9   4.8758614322583455E-010
          10  -8.5723245039454255E-007
          11  -9.8291119623453199E-008
          12  0.58790518495057897     
          13   9.9029004948210413E-007
          14  -4.8657911081321299E-006
          15  -7.3405689779671857E-008
          16  -2.4435997015633572E-008
          17   9.7841686795305435E-008
          18   2.1331242475526362E-002
          19  -9.8722873775899094E-003
          20  -1.7024001659463820E-007
          21  -9.8666450165385614E-008
          22  0.58790480093718067     
          23  -9.8403661482045736E-007
          24  -4.8694018821003863E-006
          25  -7.3274684457517056E-008
          26  -2.4767699974023042E-008
          27   9.8042384431540101E-008
          28  -2.1331230325094788E-002
          29  -9.8722709108321465E-003
          30   1.7023025672155445E-007
          31  -8.4632428904020544E-007
          32  -2.8241217299938684E-002
          33  -1.2369398296365568E-007
          34  -5.8414326240657790E-007
          35  -1.1259583641472767E-002
          36   1.1259954245191450E-002
          37  -8.4589048721876556E-007
          38  -2.8241202081900028E-002
          39   1.2369854756965520E-007
          40  -5.8448740142909621E-007
          41   1.1259928544837013E-002
          42  -1.1259557586973171E-002
          43  -2.0362191091729117E-007
          44  -2.0360215782179148E-007
Sym=    14a
Ene=  -0.38996605038079124     
Spin= Alpha
Occup=     2.00000000
           1  -5.1674623406751663E-003
           2  0.50501196090173051     
           3 -0.49984449856105539     
           4  -4.0210626101913062E-009
           5  -2.2047269657012985E-006
           6  -9.5818693583665778E-008
           7   1.8489724489558573E-002
           8  -1.5125128690521649E-006
           9  -5.3257726497632675E-008
          10  -3.0353900296384278E-002
          11  -1.1539537146917597E-002
          12  -5.5058348747753781E-006
          13  0.22990910804822010     
          14 -0.45940498740807106     
          15  -1.0509930499150548E-002
          16   9.4919877943101891E-004
          17   9.5607317197195299E-003
          18  -2.0154225376564606E-007
          19   1.1758486168360337E-007
          20  -1.6870477038635118E-002
          21  -1.1539574412124842E-002
          22  -5.5031820365419263E-006
          23 -0.22990918088450121     
          24 -0.45940513052362869     