      -----------------------------------------------------------      
     |                   =====================                   |     
     |                           x T B                           |     
     |                   =====================                   |     
     |                         S. Grimme                         |     
     |          Mulliken Center for Theoretical Chemistry        |     
     |                    University of Bonn                     |     
      -----------------------------------------------------------      

   * xtb version 6.4.0 (4cdc11a) compiled by 'conda@a8a27530561a' on 2021-02-01

   xtb is free software: you can redistribute it and/or modify it under
   the terms of the GNU Lesser General Public License as published by
   the Free Software Foundation, either version 3 of the License, or
   (at your option) any later version.
   
   xtb is distributed in the hope that it will be useful,
   but WITHOUT ANY WARRANTY; without even the implied warranty of
   MERCHANTABILITY or FITNESS FOR A PARTICULAR PURPOSE.  See the
   GNU Lesser General Public License for more details.
   
   Cite this work as:
   * C. Bannwarth, E. Caldeweyher, S. Ehlert, A. Hansen, P. Pracht,
     J. Seibert, S. Spicher, S. Grimme, WIREs Comput. Mol. Sci., 2020,
     e01493. DOI: 10.1002/wcms.1493
   
   for GFN2-xTB:
   * C. Bannwarth, S. Ehlert and S. Grimme., J. Chem. Theory Comput., 2019,
     15, 1652-1671. DOI: 10.1021/acs.jctc.8b01176
   for GFN1-xTB:
   * S. Grimme, C. Bannwarth, P. Shushkov, J. Chem. Theory Comput., 2017,
     13, 1989-2009. DOI: 10.1021/acs.jctc.7b00118
   for GFN0-xTB:
   * P. Pracht, E. Caldeweyher, S. Ehlert, S. Grimme, ChemRxiv, 2019, preprint.
     DOI: 10.26434/chemrxiv.8326202.v1
   for GFN-FF:
   * S. Spicher and S. Grimme, Angew. Chem. Int. Ed., 2020, 59, 15665-15673.
     DOI: 10.1002/anie.202004239
   
   for DFT-D4:
   * E. Caldeweyher, C. Bannwarth and S. Grimme, J. Chem. Phys., 2017,
     147, 034112. DOI: 10.1063/1.4993215
   * E. Caldeweyher, S. Ehlert, A. Hansen, H. Neugebauer, S. Spicher,
     C. Bannwarth and S. Grimme, J. Chem. Phys., 2019, 150, 154122.
     DOI: 10.1063/1.5090222
   * E. Caldeweyher, J.-M. Mewes, S. Ehlert and S. Grimme, Phys. Chem. Chem. Phys.
     2020, 22, 8499-8512. DOI: 10.1039/D0CP00502A
   
   for sTDA-xTB:
   * S. Grimme and C. Bannwarth, J. Chem. Phys., 2016, 145, 054103.
     DOI: 10.1063/1.4959605
   
   in the mass-spec context:
   * V. Asgeirsson, C. Bauer and S. Grimme, Chem. Sci., 2017, 8, 4879.
     DOI: 10.1039/c7sc00601b
   * J. Koopman and S. Grimme, ACS Omega 2019, 4, 12, 15120-15133.
     DOI: 10.1021/acsomega.9b02011
   
   for metadynamics refer to:
   * S. Grimme, J. Chem. Theory Comput., 2019, 155, 2847-2862
     DOI: 10.1021/acs.jctc.9b00143
   
   with help from (in alphabetical order)
   P. Atkinson, C. Bannwarth, F. Bohle, G. Brandenburg, E. Caldeweyher
   M. Checinski, S. Dohm, S. Ehlert, S. Ehrlich, I. Gerasimov, J. Koopman
   C. Lavinge, S. Lehtola, F. März, M. Müller, F. Musil, H. Neugebauer
   J. Pisarek, P. Pracht, J. Seibert, P. Shushkov, S. Spicher, M. Stahn
   T. Strunk, J. Stückrath, T. Rose, and J. Unsleber
   
 * started run on 2021/06/07 at 16:01:34.684     

           -------------------------------------------------
          |                Calculation Setup                |
           -------------------------------------------------

          program call               : xtb cisplatin.xyz --gfn 2 --opt tight --parallel 1
          coordinate file            : cisplatin.xyz
          omp threads                :                     1
          number of atoms            :                    11
          number of electrons        :                    40
          charge                     :                     0
          spin                       :                   0.0
          first test random number   :      0.22422301317650

   ID    Z sym.   atoms
    1   78 Pt     1
    2   17 Cl     2, 3
    3    7 N      4, 7
    4    1 H      5, 6, 8-11

           -------------------------------------------------
          |                 G F N 2 - x T B                 |
           -------------------------------------------------

        Reference                      10.1021/acs.jctc.8b01176
      * Hamiltonian:
        H0-scaling (s, p, d)           1.850000    2.230000    2.230000
        zeta-weighting                 0.500000
      * Dispersion:
        s8                             2.700000
        a1                             0.520000
        a2                             5.000000
        s9                             5.000000
      * Repulsion:
        kExp                           1.500000    1.000000
        rExp                           1.000000
      * Coulomb:
        alpha                          2.000000
        third order                    shell-resolved
        anisotropic                    true
        a3                             3.000000
        a5                             4.000000
        cn-shift                       1.200000
        cn-exp                         4.000000
        max-rad                        5.000000


          ...................................................
          :                      SETUP                      :
          :.................................................:
          :  # basis functions                  44          :
          :  # atomic orbitals                  41          :
          :  # shells                           19          :
          :  # electrons                        40          :
          :  max. iterations                   250          :
          :  Hamiltonian                  GFN2-xTB          :
          :  restarted?                      false          :
          :  GBSA solvation                  false          :
          :  PC potential                    false          :
          :  electronic temp.          300.0000000     K    :
          :  accuracy                    1.0000000          :
          :  -> integral cutoff          0.2500000E+02      :
          :  -> integral neglect         0.1000000E-07      :
          :  -> SCF convergence          0.1000000E-05 Eh   :
          :  -> wf. convergence          0.1000000E-03 e    :
          :  Broyden damping             0.4000000          :
          ...................................................

 iter      E             dE          RMSdq      gap      omega  full diag
   1    -22.3263219 -0.223263E+02  0.776E+00    4.38       0.0  T
   2    -22.7195115 -0.393190E+00  0.574E+00    3.14       1.0  T
   3    -22.7230988 -0.358734E-02  0.389E+00    3.13       1.0  T
   4    -22.7256083 -0.250951E-02  0.698E-01    3.08       1.0  T
   5    -22.7259376 -0.329243E-03  0.357E-01    3.07       1.0  T
   6    -22.7261458 -0.208290E-03  0.147E-01    3.10       1.0  T
   7    -22.7262017 -0.558693E-04  0.989E-02    3.08       1.0  T
   8    -22.7262256 -0.238939E-04  0.283E-02    3.08       1.1  T
   9    -22.7262264 -0.800278E-06  0.832E-03    3.08       3.6  T
  10    -22.7262267 -0.328114E-06  0.376E-03    3.08       8.0  T
  11    -22.7262267  0.111541E-07  0.349E-03    3.08       8.6  T
  12    -22.7262268 -0.524443E-07  0.126E-03    3.08      23.9  T
  13    -22.7262268 -0.485149E-08  0.655E-05    3.08     460.1  T
  14    -22.7262268 -0.560263E-11  0.362E-05    3.08     832.2  T

   *** convergence criteria satisfied after 14 iterations ***

         #    Occupation            Energy/Eh            Energy/eV
      -------------------------------------------------------------
         1        2.0000           -0.9904668             -26.9520
       ...           ...                  ...                  ...
        14        2.0000           -0.3847353             -10.4692
        15        2.0000           -0.3793939             -10.3238
        16        2.0000           -0.3643014              -9.9131
        17        2.0000           -0.3559761              -9.6866
        18        2.0000           -0.3550593              -9.6617
        19        2.0000           -0.3479695              -9.4687
        20        2.0000           -0.3466883              -9.4339 (HOMO)
        21                         -0.2335106              -6.3541 (LUMO)
        22                         -0.0546693              -1.4876
        23                          0.0109292               0.2974
        24                          0.0340586               0.9268
        25                          0.0794801               2.1628
       ...                                ...                  ...
        41                          1.2775138              34.7629
      -------------------------------------------------------------
                  HL-Gap            0.1131777 Eh            3.0797 eV
             Fermi-level           -0.2900994 Eh           -7.8940 eV

 SCC (total)                   0 d,  0 h,  0 min,  0.011 sec
 SCC setup                      ...        0 min,  0.000 sec (  0.764%)
 Dispersion                     ...        0 min,  0.000 sec (  0.275%)
 classical contributions        ...        0 min,  0.000 sec (  0.115%)
 integral evaluation            ...        0 min,  0.002 sec ( 15.688%)
 iterations                     ...        0 min,  0.007 sec ( 57.655%)
 molecular gradient             ...        0 min,  0.003 sec ( 24.337%)
 printout                       ...        0 min,  0.000 sec (  1.086%)

         :::::::::::::::::::::::::::::::::::::::::::::::::::::
         ::                     SUMMARY                     ::
         :::::::::::::::::::::::::::::::::::::::::::::::::::::
         :: total energy             -22.594752228635 Eh    ::
         :: gradient norm              0.072342407762 Eh/a0 ::
         :: HOMO-LUMO gap              3.079721856999 eV    ::
         ::.................................................::
         :: SCC energy               -22.726226780465 Eh    ::
         :: -> isotropic ES            0.071160244921 Eh    ::
         :: -> anisotropic ES         -0.004972306757 Eh    ::
         :: -> anisotropic XC         -0.000727751107 Eh    ::
         :: -> dispersion             -0.008416573841 Eh    ::
         :: repulsion energy           0.131454980442 Eh    ::
         :: add. restraining           0.000000000000 Eh    ::
         :: total charge               0.000000000000 e     ::
         :::::::::::::::::::::::::::::::::::::::::::::::::::::

      ----------------------------------------------------------- 
     |                   =====================                   |
     |                        A N C O P T                        |
     |                   =====================                   |
     |               Approximate Normal Coordinate               |
     |                Rational Function Optimizer                |
      ----------------------------------------------------------- 

          ...................................................
          :                      SETUP                      :
          :.................................................:
          :   optimization level             tight          :
          :   max. optcycles                   200          :
          :   ANC micro-cycles                  20          :
          :   degrees of freedom                27          :
          :.................................................:
          :   RF solver                   davidson          :
          :   write xtbopt.log                true          :
          :   linear?                        false          :
          :   energy convergence         0.1000000E-05 Eh   :
          :   grad. convergence          0.8000000E-03 Eh/α :
          :   maximium RF displ.         1.0000000          :
          :   Hlow (freq-cutoff)         0.1000000E-01      :
          :   Hmax (freq-cutoff)         5.0000000          :
          :   S6 in model hess.         20.0000000          :
          ...................................................

generating ANC from model Hessian ...
Using Lindh-Hessian (1995)
 Shifting diagonal of input Hessian by    1.1432306476696037E-002
 Lowest  eigenvalues of input Hessian
    0.010000    0.011033    0.000000    0.000000    0.000000    0.000000
    0.000000    0.000000    0.012433    0.012728    0.013924    0.014470
    0.014510    0.049715    0.049831    0.049944    0.060627    0.061858
 Highest eigenvalues
    0.982465    0.982631    1.460890    1.461220    1.462158    1.465287


........................................................................
.............................. CYCLE    1 ..............................
........................................................................
   1    -22.7262268 -0.227262E+02  0.495E-06    3.08       0.0  T
   2    -22.7262268 -0.284217E-13  0.284E-06    3.08   10615.7  T
   3    -22.7262268  0.248690E-13  0.109E-06    3.08   27641.8  T
     SCC iter.                  ...        0 min,  0.001 sec
     gradient                   ...        0 min,  0.003 sec
 * total energy  :   -22.5947522 Eh     change       -0.1826095E-11 Eh
   gradient norm :     0.0723423 Eh/α   predicted     0.0000000E+00 (-100.00%)
   displ. norm   :     0.3691972 α      lambda       -0.1579385E-01
   maximum displ.:     0.2568790 α      in ANC's #1, #6, #21, ...

........................................................................
.............................. CYCLE    2 ..............................
........................................................................
   1    -22.7186980 -0.227187E+02  0.454E-01    2.80       0.0  T
   2    -22.7191179 -0.419925E-03  0.340E-01    2.83       1.0  T
   3    -22.7191575 -0.395778E-04  0.211E-01    2.83       1.0  T
   4    -22.7191721 -0.145787E-04  0.637E-02    2.83       1.0  T
   5    -22.7191747 -0.267034E-05  0.265E-02    2.83       1.1  T
   6    -22.7191761 -0.132817E-05  0.135E-02    2.83       2.2  T
   7    -22.7191767 -0.588801E-06  0.507E-03    2.83       5.9  T
   8    -22.7191767 -0.365040E-07  0.109E-03    2.83      27.6  T
   9    -22.7191767 -0.146836E-08  0.620E-04    2.83      48.6  T
  10    -22.7191767 -0.688484E-09  0.344E-04    2.83      87.6  T
     SCC iter.                  ...        0 min,  0.004 sec
     gradient                   ...        0 min,  0.003 sec
 * total energy  :   -22.6040001 Eh     change       -0.9247842E-02 Eh
   gradient norm :     0.0201078 Eh/α   predicted    -0.8973325E-02 (  -2.97%)
   displ. norm   :     0.4897210 α      lambda       -0.6381054E-02
   maximum displ.:     0.4236840 α      in ANC's #6, #11, #1, ...

........................................................................
.............................. CYCLE    3 ..............................
........................................................................
   1    -22.7125449 -0.227125E+02  0.874E-01    2.51       0.0  T
   2    -22.7127440 -0.199033E-03  0.378E-01    2.54       1.0  T
   3    -22.7127549 -0.108924E-04  0.102E-01    2.54       1.0  T
   4    -22.7127566 -0.170541E-05  0.312E-02    2.54       1.0  T
   5    -22.7127575 -0.882906E-06  0.121E-02    2.54       2.5  T
   6    -22.7127577 -0.278093E-06  0.628E-03    2.54       4.8  T
   7    -22.7127578 -0.905910E-07  0.278E-03    2.54      10.8  T
   8    -22.7127578 -0.156827E-07  0.625E-04    2.54      48.3  T
   9    -22.7127578 -0.360227E-09  0.364E-04    2.54      82.9  T
     SCC iter.                  ...        0 min,  0.004 sec
     gradient                   ...        0 min,  0.003 sec
 * total energy  :   -22.6081027 Eh     change       -0.4102580E-02 Eh
   gradient norm :     0.0202887 Eh/α   predicted    -0.3955704E-02 (  -3.58%)
   displ. norm   :     0.4088142 α      lambda       -0.2442557E-02
   maximum displ.:     0.3989098 α      in ANC's #6, #11, #15, ...

........................................................................
.............................. CYCLE    4 ..............................
........................................................................
   1    -22.7151179 -0.227151E+02  0.328E-01    2.45       0.0  T
   2    -22.7152064 -0.884096E-04  0.168E-01    2.47       1.0  T
   3    -22.7152105 -0.413045E-05  0.680E-02    2.47       1.0  T
   4    -22.7152109 -0.401979E-06  0.192E-02    2.47       1.6  T
   5    -22.7152110 -0.669710E-07  0.598E-03    2.47       5.0  T
   6    -22.7152110 -0.140706E-07  0.156E-03    2.47      19.3  T
   7    -22.7152110 -0.397986E-08  0.931E-04    2.47      32.4  T
   8    -22.7152110 -0.237080E-08  0.274E-04    2.47     109.9  T
     SCC iter.                  ...        0 min,  0.003 sec
     gradient                   ...        0 min,  0.003 sec
 * total energy  :   -22.6098975 Eh     change       -0.1794838E-02 Eh
   gradient norm :     0.0156785 Eh/α   predicted    -0.1425394E-02 ( -20.58%)
   displ. norm   :     0.3605276 α      lambda       -0.1417931E-02
   maximum displ.:     0.3449385 α      in ANC's #6, #11, #1, ...

........................................................................
.............................. CYCLE    5 ..............................
........................................................................
   1    -22.7193948 -0.227194E+02  0.284E-01    2.37       0.0  T
   2    -22.7194205 -0.256771E-04  0.141E-01    2.38       1.0  T
   3    -22.7194222 -0.171832E-05  0.359E-02    2.38       1.0  T
   4    -22.7194225 -0.341600E-06  0.137E-02    2.38       2.2  T
   5    -22.7194227 -0.200579E-06  0.685E-03    2.38       4.4  T
   6    -22.7194228 -0.105433E-06  0.353E-03    2.38       8.5  T
   7    -22.7194229 -0.378085E-07  0.121E-03    2.38      25.0  T
   8    -22.7194229 -0.212839E-08  0.197E-04    2.38     152.9  T
   9    -22.7194229 -0.235509E-10  0.115E-04    2.38     263.2  T
     SCC iter.                  ...        0 min,  0.004 sec
     gradient                   ...        0 min,  0.003 sec
 * total energy  :   -22.6108183 Eh     change       -0.9207758E-03 Eh
   gradient norm :     0.0067019 Eh/α   predicted    -0.8011188E-03 ( -13.00%)
   displ. norm   :     0.2307005 α      lambda       -0.5313889E-03
   maximum displ.:     0.2102802 α      in ANC's #6, #1, #9, ...

........................................................................
.............................. CYCLE    6 ..............................
........................................................................
   1    -22.7208208 -0.227208E+02  0.183E-01    2.42       0.0  T
   2    -22.7208396 -0.188083E-04  0.912E-02    2.42       1.0  T
   3    -22.7208406 -0.961387E-06  0.277E-02    2.42       1.1  T
   4    -22.7208407 -0.124625E-06  0.123E-02    2.42       2.5  T
   5    -22.7208408 -0.703677E-07  0.334E-03    2.42       9.0  T
   6    -22.7208408 -0.214493E-07  0.172E-03    2.42      17.6  T
   7    -22.7208408 -0.608961E-08  0.825E-04    2.42      36.6  T
   8    -22.7208408 -0.134520E-08  0.218E-04    2.42     138.1  T
     SCC iter.                  ...        0 min,  0.003 sec
     gradient                   ...        0 min,  0.003 sec
 * total energy  :   -22.6111125 Eh     change       -0.2942807E-03 Eh
   gradient norm :     0.0052701 Eh/α   predicted    -0.2798366E-03 (  -4.91%)
   displ. norm   :     0.1419157 α      lambda       -0.2593027E-03
   maximum displ.:     0.1107641 α      in ANC's #6, #9, #1, ...

........................................................................
.............................. CYCLE    7 ..............................
........................................................................
   1    -22.7214483 -0.227214E+02  0.138E-01    2.40       0.0  T
   2    -22.7214504 -0.212447E-05  0.727E-02    2.40       1.0  T
   3    -22.7214519 -0.150522E-05  0.170E-02    2.40       1.8  T
   4    -22.7214523 -0.355908E-06  0.136E-02    2.40       2.2  T
   5    -22.7214529 -0.593472E-06  0.661E-03    2.40       4.6  T
   6    -22.7214530 -0.114584E-06  0.198E-03    2.40      15.2  T
   7    -22.7214530 -0.366586E-08  0.441E-04    2.40      68.4  T
   8    -22.7214530 -0.119616E-09  0.210E-04    2.40     143.3  T
     SCC iter.                  ...        0 min,  0.003 sec
     gradient                   ...        0 min,  0.003 sec
 * total energy  :   -22.6112758 Eh     change       -0.1632059E-03 Eh
   gradient norm :     0.0023217 Eh/α   predicted    -0.1322625E-03 ( -18.96%)
   displ. norm   :     0.0598485 α      lambda       -0.9320946E-04
   maximum displ.:     0.0477908 α      in ANC's #9, #1, #6, ...

........................................................................
.............................. CYCLE    8 ..............................
........................................................................
   1    -22.7216957 -0.227217E+02  0.976E-02    2.43       0.0  T
   2    -22.7216975 -0.181030E-05  0.435E-02    2.43       1.0  T
   3    -22.7216981 -0.551273E-06  0.117E-02    2.43       2.6  T
   4    -22.7216982 -0.177166E-06  0.799E-03    2.43       3.8  T
   5    -22.7216984 -0.183246E-06  0.478E-03    2.43       6.3  T
   6    -22.7216985 -0.681023E-07  0.802E-04    2.43      37.6  T
   7    -22.7216985 -0.654843E-09  0.243E-04    2.43     124.3  T
     SCC iter.                  ...        0 min,  0.003 sec
     gradient                   ...        0 min,  0.003 sec
 * total energy  :   -22.6113386 Eh     change       -0.6286913E-04 Eh
   gradient norm :     0.0009163 Eh/α   predicted    -0.4677131E-04 ( -25.61%)
   displ. norm   :     0.0544515 α      lambda       -0.2604742E-04
   maximum displ.:     0.0381382 α      in ANC's #9, #6, #11, ...

........................................................................
.............................. CYCLE    9 ..............................
........................................................................
   1    -22.7216386 -0.227216E+02  0.898E-02    2.47       0.0  T
   2    -22.7216406 -0.199325E-05  0.386E-02    2.47       1.0  T
   3    -22.7216410 -0.372064E-06  0.104E-02    2.47       2.9  T
   4    -22.7216411 -0.112436E-06  0.599E-03    2.47       5.0  T
   5    -22.7216412 -0.822697E-07  0.395E-03    2.47       7.6  T
   6    -22.7216412 -0.523302E-07  0.929E-04    2.47      32.4  T
   7    -22.7216412 -0.693881E-09  0.174E-04    2.47     173.3  T
     SCC iter.                  ...        0 min,  0.003 sec
     gradient                   ...        0 min,  0.003 sec
 * total energy  :   -22.6113505 Eh     change       -0.1184524E-04 Eh
   gradient norm :     0.0006795 Eh/α   predicted    -0.1304050E-04 (  10.09%)
   displ. norm   :     0.0163223 α      lambda       -0.3674382E-05
   maximum displ.:     0.0138111 α      in ANC's #9, #21, #19, ...

........................................................................
.............................. CYCLE   10 ..............................
........................................................................
   1    -22.7216544 -0.227217E+02  0.284E-02    2.46       0.0  T
   2    -22.7216545 -0.159901E-06  0.126E-02    2.46       2.4  T
   3    -22.7216546 -0.430594E-07  0.331E-03    2.46       9.1  T
   4    -22.7216546 -0.137204E-07  0.219E-03    2.46      13.8  T
   5    -22.7216546 -0.131388E-07  0.134E-03    2.46      22.5  T
   6    -22.7216546 -0.551622E-08  0.250E-04    2.46     120.8  T
   7    -22.7216546 -0.577955E-10  0.637E-05    2.46     473.6  T
     SCC iter.                  ...        0 min,  0.003 sec
     gradient                   ...        0 min,  0.003 sec
 * total energy  :   -22.6113532 Eh     change       -0.2751444E-05 Eh
   gradient norm :     0.0002320 Eh/α   predicted    -0.1837212E-05 ( -33.23%)
   displ. norm   :     0.0029061 α      lambda       -0.9676975E-07
   maximum displ.:     0.0025665 α      in ANC's #6, #9, #11, ...

........................................................................
.............................. CYCLE   11 ..............................
........................................................................
   1    -22.7215990 -0.227216E+02  0.356E-03    2.46       0.0  T
   2    -22.7215990 -0.284185E-08  0.168E-03    2.46      17.9  T
   3    -22.7215990 -0.544226E-09  0.458E-04    2.46      65.8  T
   4    -22.7215990 -0.197105E-09  0.249E-04    2.46     121.1  T
     SCC iter.                  ...        0 min,  0.002 sec
     gradient                   ...        0 min,  0.003 sec
 * total energy  :   -22.6113533 Eh     change       -0.7320109E-07 Eh
   gradient norm :     0.0001968 Eh/α   predicted    -0.4769488E-07 ( -34.84%)
   displ. norm   :     0.0010045 α      lambda       -0.6255155E-07
   maximum displ.:     0.0006655 α      in ANC's #6, #11, #27, ...

   *** GEOMETRY OPTIMIZATION CONVERGED AFTER 11 ITERATIONS ***

------------------------------------------------------------------------
 total energy gain   :        -0.0166011 Eh      -10.4173 kcal/mol
 total RMSD          :         0.5317700 a0        0.2814 Å
 total power (kW/mol):        -3.9623709 (step) -498.1101 (real)
------------------------------------------------------------------------

 ANCopt (total)                0 d,  0 h,  0 min,  0.088 sec
 optimizer setup                ...        0 min,  0.000 sec (  0.044%)
 model hessian                  ...        0 min,  0.001 sec (  1.420%)
 ANC generation                 ...        0 min,  0.000 sec (  0.209%)
 coordinate transformation      ...        0 min,  0.000 sec (  0.043%)
 single point calculation       ...        0 min,  0.082 sec ( 93.538%)
 optimization log               ...        0 min,  0.001 sec (  0.621%)
 hessian update                 ...        0 min,  0.000 sec (  0.045%)
 rational function              ...        0 min,  0.003 sec (  3.716%)

================
 final structure:
================
11
 xtb: 6.4.0 (4cdc11a)
Pt       -0.00000449684088   -0.00000012301904   -0.21630620499149
Cl        0.00000161248914    1.63897313298448    1.30523154330430
Cl        0.00000162663365   -1.63897292217798    1.30523195650038
N        -0.00000016695780    1.63213006687304   -1.62100671527553
H         0.82928918740351    1.70251885747651   -2.20321867213221
H        -0.82928852422915    1.70252024539014   -2.20322044341901
N        -0.00000016948130   -1.63213010987884   -1.62100686932329
H        -0.82928855150042   -1.70252023177277   -2.20322055776259
H         0.82928916751668   -1.70251883754120   -2.20321882607369
H         0.00000014939877    2.40398784044610   -0.94551830530188
H         0.00000016556780   -2.40398791878039   -0.94551852552498

 Bond Distances (Angstroems)
 ---------------------------
Pt1-Cl2=2.2364       Pt1-Cl3=2.2364       Pt1-N4=2.1534        Pt1-N7=2.1534        Cl2-Pt1=2.2364       Cl3-Pt1=2.2364       
N4-Pt1=2.1534        N4-H5=1.0157         N4-H6=1.0157         N4-H10=1.0257        H5-N4=1.0157         H6-N4=1.0157         
N7-Pt1=2.1534        N7-H8=1.0157         N7-H9=1.0157         N7-H11=1.0257        H8-N7=1.0157         H9-N7=1.0157         
H10-N4=1.0257        H11-N7=1.0257        
 N  H  Rav=1.0190 sigma=0.0047  Rmin=1.0157  Rmax=1.0257     6
 Pt N  Rav=2.1534 sigma=0.0000  Rmin=2.1534  Rmax=2.1534     2
 Pt Cl Rav=2.2364 sigma=0.0000  Rmin=2.2364  Rmax=2.2364     2

 selected bond angles (degree)
 --------------------
Cl3-Pt1-Cl2= 94.26             N4-Pt1-Cl2= 83.59              N4-Pt1-Cl3=177.85              N7-Pt1-Cl2=177.85              
N7-Pt1-Cl3= 83.59              N7-Pt1-N4= 98.57               H5-N4-Pt1=115.24               H6-N4-Pt1=115.24               
H6-N4-H5=109.47                H10-N4-Pt1= 98.09              H10-N4-H5=108.99               H10-N4-H6=108.99               
H8-N7-Pt1=115.24               H9-N7-Pt1=115.24               H9-N7-H8=109.47                H11-N7-Pt1= 98.09              
H11-N7-H8=108.99               H11-N7-H9=108.99               

 selected dihedral angles (degree)
 ---------------------------------
H5-N4-Pt1-Cl2=115.49          H5-N4-Pt1-Cl3=115.48          H5-N4-Pt1-N7=295.49           H6-N4-Pt1-Cl2=244.51          
H6-N4-Pt1-Cl3=244.50          H6-N4-Pt1-N7= 64.51           H10-N4-Pt1-Cl2=  0.00         H10-N4-Pt1-Cl3=  0.00         
H10-N4-Pt1-N7=180.00          H8-N7-Pt1-Cl2=115.50          H8-N7-Pt1-Cl3=115.49          H8-N7-Pt1-N4=295.49           
H9-N7-Pt1-Cl2=244.52          H9-N7-Pt1-Cl3=244.51          H9-N7-Pt1-N4= 64.51           H11-N7-Pt1-Cl2=  0.00         
H11-N7-Pt1-Cl3=  0.00         H11-N7-Pt1-N4=180.00          
           -------------------------------------------------
          |                Final Singlepoint                |
           -------------------------------------------------

          ...................................................
          :                      SETUP                      :
          :.................................................:
          :  # basis functions                  44          :
          :  # atomic orbitals                  41          :
          :  # shells                           19          :
          :  # electrons                        40          :
          :  max. iterations                   250          :
          :  Hamiltonian                  GFN2-xTB          :
          :  restarted?                      false          :
          :  GBSA solvation                  false          :
          :  PC potential                    false          :
          :  electronic temp.          300.0000000     K    :
          :  accuracy                    1.0000000          :
          :  -> integral cutoff          0.2500000E+02      :
          :  -> integral neglect         0.1000000E-07      :
          :  -> SCF convergence          0.1000000E-05 Eh   :
          :  -> wf. convergence          0.1000000E-03 e    :
          :  Broyden damping             0.4000000          :
          ...................................................

 iter      E             dE          RMSdq      gap      omega  full diag
   1    -22.7215990 -0.227216E+02  0.162E-04    2.46       0.0  T
   2    -22.7215990 -0.256506E-10  0.131E-04    2.46     229.9  T
   3    -22.7215990 -0.549569E-10  0.402E-05    2.46     749.7  T

   *** convergence criteria satisfied after 3 iterations ***

         #    Occupation            Energy/Eh            Energy/eV
      -------------------------------------------------------------
         1        2.0000           -1.0009590             -27.2375
       ...           ...                  ...                  ...
        14        2.0000           -0.3899663             -10.6115
        15        2.0000           -0.3840648             -10.4509
        16        2.0000           -0.3686602             -10.0318
        17        2.0000           -0.3609176              -9.8211
        18        2.0000           -0.3555914              -9.6761
        19        2.0000           -0.3500380              -9.5250
        20        2.0000           -0.3493933              -9.5075 (HOMO)
        21                         -0.2590218              -7.0483 (LUMO)
        22                         -0.0542138              -1.4752
        23                         -0.0050565              -0.1376
        24                          0.0285953               0.7781
        25                          0.0594870               1.6187
       ...                                ...                  ...
        41                          1.4255518              38.7912
      -------------------------------------------------------------
                  HL-Gap            0.0903715 Eh            2.4591 eV
             Fermi-level           -0.3042076 Eh           -8.2779 eV

 SCC (total)                   0 d,  0 h,  0 min,  0.006 sec
 SCC setup                      ...        0 min,  0.000 sec (  1.005%)
 Dispersion                     ...        0 min,  0.000 sec (  0.308%)
 classical contributions        ...        0 min,  0.000 sec (  0.163%)
 integral evaluation            ...        0 min,  0.002 sec ( 29.209%)
 iterations                     ...        0 min,  0.001 sec ( 19.945%)
 molecular gradient             ...        0 min,  0.003 sec ( 48.006%)
 printout                       ...        0 min,  0.000 sec (  1.250%)

         :::::::::::::::::::::::::::::::::::::::::::::::::::::
         ::                     SUMMARY                     ::
         :::::::::::::::::::::::::::::::::::::::::::::::::::::
         :: total energy             -22.611353289782 Eh    ::
         :: gradient norm              0.000197627291 Eh/a0 ::
         :: HOMO-LUMO gap              2.459132857836 eV    ::
         ::.................................................::
         :: SCC energy               -22.721598955506 Eh    ::
         :: -> isotropic ES            0.058346829407 Eh    ::
         :: -> anisotropic ES         -0.007516667121 Eh    ::
         :: -> anisotropic XC          0.001123624863 Eh    ::
         :: -> dispersion             -0.008231733397 Eh    ::
         :: repulsion energy           0.110221479842 Eh    ::
         :: add. restraining           0.000000000000 Eh    ::
         :: total charge               0.000000000000 e     ::
         :::::::::::::::::::::::::::::::::::::::::::::::::::::

           -------------------------------------------------
          |                Property Printout                |
           -------------------------------------------------

    * Orbital Energies and Occupations

         #    Occupation            Energy/Eh            Energy/eV
      -------------------------------------------------------------
         1        2.0000           -1.0009590             -27.2375
       ...           ...                  ...                  ...
         8        2.0000           -0.5586703             -15.2022
         9        2.0000           -0.5197909             -14.1442
        10        2.0000           -0.4763777             -12.9629
        11        2.0000           -0.4102082             -11.1623
        12        2.0000           -0.3961351             -10.7794
        13        2.0000           -0.3910278             -10.6404
        14        2.0000           -0.3899663             -10.6115
        15        2.0000           -0.3840648             -10.4509
        16        2.0000           -0.3686602             -10.0318
        17        2.0000           -0.3609176              -9.8211
        18        2.0000           -0.3555914              -9.6761
        19        2.0000           -0.3500380              -9.5250
        20        2.0000           -0.3493933              -9.5075 (HOMO)
        21                         -0.2590218              -7.0483 (LUMO)
        22                         -0.0542138              -1.4752
        23                         -0.0050565              -0.1376
        24                          0.0285953               0.7781
        25                          0.0594870               1.6187
        26                          0.0884011               2.4055
        27                          0.0900633               2.4507
        28                          0.0904484               2.4612
        29                          0.0910626               2.4779
        30                          0.0919407               2.5018
        31                          0.0978923               2.6638
       ...                                ...                  ...
        41                          1.4255518              38.7912
      -------------------------------------------------------------
                  HL-Gap            0.0903715 Eh            2.4591 eV
             Fermi-level           -0.3042076 Eh           -8.2779 eV

     #   Z          covCN         q      C6AA      α(0)
     1  78 Pt       3.250    -0.041   348.073    35.154
     2  17 Cl       0.850    -0.328   109.646    16.019
     3  17 Cl       0.850    -0.328   109.646    16.019
     4   7 N        3.360    -0.282    27.269     7.756
     5   1 H        0.860     0.196     1.126     1.662
     6   1 H        0.860     0.196     1.126     1.662
     7   7 N        3.360    -0.282    27.269     7.756
     8   1 H        0.860     0.196     1.126     1.662
     9   1 H        0.860     0.196     1.126     1.662
    10   1 H        0.860     0.239     0.929     1.510
    11   1 H        0.860     0.239     0.929     1.510

 Mol. C6AA /au·bohr⁶  :       3140.468334
 Mol. C8AA /au·bohr⁸  :     155841.878203
 Mol. α(0) /au        :         92.370330


Wiberg/Mayer (AO) data.
largest (>0.10) Wiberg bond orders for each atom

 ---------------------------------------------------------------------------
     #   Z sym  total        # sym  WBO       # sym  WBO       # sym  WBO
 ---------------------------------------------------------------------------
     1  78 Pt   3.088 --     3 Cl   0.982     2 Cl   0.982     7 N    0.507
                             4 N    0.507
     2  17 Cl   1.128 --     1 Pt   0.982
     3  17 Cl   1.128 --     1 Pt   0.982
     4   7 N    3.406 --     6 H    0.942     5 H    0.942    10 H    0.904
                             1 Pt   0.507
     5   1 H    0.962 --     4 N    0.942
     6   1 H    0.962 --     4 N    0.942
     7   7 N    3.406 --     8 H    0.942     9 H    0.942    11 H    0.904
                             1 Pt   0.507
     8   1 H    0.962 --     7 N    0.942
     9   1 H    0.962 --     7 N    0.942
    10   1 H    0.943 --     4 N    0.904
    11   1 H    0.943 --     7 N    0.904
 ---------------------------------------------------------------------------

Topologies differ in total number of bonds
Writing topology from bond orders to xtbtopo.mol

molecular dipole:
                 x           y           z       tot (Debye)
 q only:       -0.000      -0.000      -3.992
   full:        0.000      -0.000      -4.233      10.760
molecular quadrupole (traceless):
                xx          xy          yy          xz          yz          zz
 q only:       -4.143       0.000       2.431      -0.000       0.000       1.712
  q+dip:       -4.343       0.000      -1.041      -0.000       0.000       5.384
   full:       -5.359       0.000      -0.330      -0.000       0.000       5.689

           -------------------------------------------------
          |                Geometry Summary                 |
           -------------------------------------------------

      molecular mass/u    :      300.0513829
   center of mass at/Å    :       -0.0000026      -0.0000001      -0.0194907
  moments of inertia/u·Å² :        0.2275667E+03   0.2912023E+03   0.5132236E+03
rotational constants/cm⁻¹ :        0.7407777E-01   0.5788976E-01   0.3284657E-01

 * 8 selected distances

     #   Z          #   Z                                           value/Å
     1  78 Pt       2  17 Cl                                      2.2363610 (max)
     1  78 Pt       3  17 Cl                                      2.2363609
     4   7 N        5   1 H                                       1.0156998
     4   7 N        6   1 H                                       1.0157001
     7   7 N        8   1 H                                       1.0157001
     7   7 N        9   1 H                                       1.0156998 (min)
     4   7 N       10   1 H                                       1.0256944
     7   7 N       11   1 H                                       1.0256944

 * 2 distinct bonds (by element types)

   Z      Z             #   av. dist./Å        max./Å        min./Å
   1 H    7 N           6     1.0190315     1.0256944     1.0156998
  17 Cl  78 Pt          2     2.2363610     2.2363610     2.2363609


optimized geometry written to: xtbopt.xyz


           -------------------------------------------------
          | TOTAL ENERGY              -22.611353289782 Eh   |
          | GRADIENT NORM               0.000197627291 Eh/α |
          | HOMO-LUMO GAP               2.459132857836 eV   |
           -------------------------------------------------

------------------------------------------------------------------------
 * finished run on 2021/06/07 at 16:01:34.796     
------------------------------------------------------------------------
 total:
 * wall-time:     0 d,  0 h,  0 min,  0.112 sec
 *  cpu-time:     0 d,  0 h,  0 min,  0.893 sec
 * ratio c/w:     7.972 speedup
 SCF:
 * wall-time:     0 d,  0 h,  0 min,  0.011 sec
 *  cpu-time:     0 d,  0 h,  0 min,  0.091 sec
 * ratio c/w:     7.999 speedup
 ANC optimizer:
 * wall-time:     0 d,  0 h,  0 min,  0.094 sec
 *  cpu-time:     0 d,  0 h,  0 min,  0.747 sec
 * ratio c/w:     7.967 speedup

