      -----------------------------------------------------------      
     |                   =====================                   |     
     |                           x T B                           |     
     |                   =====================                   |     
     |                         S. Grimme                         |     
     |          Mulliken Center for Theoretical Chemistry        |     
     |                    University of Bonn                     |     
      -----------------------------------------------------------      

   * xtb version 6.4.0 (4cdc11a) compiled by 'conda@a8a27530561a' on 2021-02-01

   xtb is free software: you can redistribute it and/or modify it under
   the terms of the GNU Lesser General Public License as published by
   the Free Software Foundation, either version 3 of the License, or
   (at your option) any later version.
   
   xtb is distributed in the hope that it will be useful,
   but WITHOUT ANY WARRANTY; without even the implied warranty of
   MERCHANTABILITY or FITNESS FOR A PARTICULAR PURPOSE.  See the
   GNU Lesser General Public License for more details.
   
   Cite this work as:
   * C. Bannwarth, E. Caldeweyher, S. Ehlert, A. Hansen, P. Pracht,
     J. Seibert, S. Spicher, S. Grimme, WIREs Comput. Mol. Sci., 2020,
     e01493. DOI: 10.1002/wcms.1493
   
   for GFN2-xTB:
   * C. Bannwarth, S. Ehlert and S. Grimme., J. Chem. Theory Comput., 2019,
     15, 1652-1671. DOI: 10.1021/acs.jctc.8b01176
   for GFN1-xTB:
   * S. Grimme, C. Bannwarth, P. Shushkov, J. Chem. Theory Comput., 2017,
     13, 1989-2009. DOI: 10.1021/acs.jctc.7b00118
   for GFN0-xTB:
   * P. Pracht, E. Caldeweyher, S. Ehlert, S. Grimme, ChemRxiv, 2019, preprint.
     DOI: 10.26434/chemrxiv.8326202.v1
   for GFN-FF:
   * S. Spicher and S. Grimme, Angew. Chem. Int. Ed., 2020, 59, 15665-15673.
     DOI: 10.1002/anie.202004239
   
   for DFT-D4:
   * E. Caldeweyher, C. Bannwarth and S. Grimme, J. Chem. Phys., 2017,
     147, 034112. DOI: 10.1063/1.4993215
   * E. Caldeweyher, S. Ehlert, A. Hansen, H. Neugebauer, S. Spicher,
     C. Bannwarth and S. Grimme, J. Chem. Phys., 2019, 150, 154122.
     DOI: 10.1063/1.5090222
   * E. Caldeweyher, J.-M. Mewes, S. Ehlert and S. Grimme, Phys. Chem. Chem. Phys.
     2020, 22, 8499-8512. DOI: 10.1039/D0CP00502A
   
   for sTDA-xTB:
   * S. Grimme and C. Bannwarth, J. Chem. Phys., 2016, 145, 054103.
     DOI: 10.1063/1.4959605
   
   in the mass-spec context:
   * V. Asgeirsson, C. Bauer and S. Grimme, Chem. Sci., 2017, 8, 4879.
     DOI: 10.1039/c7sc00601b
   * J. Koopman and S. Grimme, ACS Omega 2019, 4, 12, 15120-15133.
     DOI: 10.1021/acsomega.9b02011
   
   for metadynamics refer to:
   * S. Grimme, J. Chem. Theory Comput., 2019, 155, 2847-2862
     DOI: 10.1021/acs.jctc.9b00143
   
   with help from (in alphabetical order)
   P. Atkinson, C. Bannwarth, F. Bohle, G. Brandenburg, E. Caldeweyher
   M. Checinski, S. Dohm, S. Ehlert, S. Ehrlich, I. Gerasimov, J. Koopman
   C. Lavinge, S. Lehtola, F. März, M. Müller, F. Musil, H. Neugebauer
   J. Pisarek, P. Pracht, J. Seibert, P. Shushkov, S. Spicher, M. Stahn
   T. Strunk, J. Stückrath, T. Rose, and J. Unsleber
   
 * started run on 2021/06/20 at 23:02:40.467     

           -------------------------------------------------
          |                Calculation Setup                |
           -------------------------------------------------

          program call               : xtb xtbopt.xyz --molden --parallel 1
          coordinate file            : xtbopt.xyz
          omp threads                :                     1
          number of atoms            :                    11
          number of electrons        :                    40
          charge                     :                     0
          spin                       :                   0.0
          first test random number   :      0.28425237135665

   ID    Z sym.   atoms
    1   78 Pt     1
    2   17 Cl     2, 3
    3    7 N      4, 7
    4    1 H      5, 6, 8-11

           -------------------------------------------------
          |                 G F N 2 - x T B                 |
           -------------------------------------------------

        Reference                      10.1021/acs.jctc.8b01176
      * Hamiltonian:
        H0-scaling (s, p, d)           1.850000    2.230000    2.230000
        zeta-weighting                 0.500000
      * Dispersion:
        s8                             2.700000
        a1                             0.520000
        a2                             5.000000
        s9                             5.000000
      * Repulsion:
        kExp                           1.500000    1.000000
        rExp                           1.000000
      * Coulomb:
        alpha                          2.000000
        third order                    shell-resolved
        anisotropic                    true
        a3                             3.000000
        a5                             4.000000
        cn-shift                       1.200000
        cn-exp                         4.000000
        max-rad                        5.000000

q/qsh data taken from xtbrestart
CAMM data taken from xtbrestart

          ...................................................
          :                      SETUP                      :
          :.................................................:
          :  # basis functions                  44          :
          :  # atomic orbitals                  41          :
          :  # shells                           19          :
          :  # electrons                        40          :
          :  max. iterations                   250          :
          :  Hamiltonian                  GFN2-xTB          :
          :  restarted?                       true          :
          :  GBSA solvation                  false          :
          :  PC potential                    false          :
          :  electronic temp.          300.0000000     K    :
          :  accuracy                    1.0000000          :
          :  -> integral cutoff          0.2500000E+02      :
          :  -> integral neglect         0.1000000E-07      :
          :  -> SCF convergence          0.1000000E-05 Eh   :
          :  -> wf. convergence          0.1000000E-03 e    :
          :  Broyden damping             0.4000000          :
          ...................................................

 iter      E             dE          RMSdq      gap      omega  full diag
   1    -22.7215990 -0.227216E+02  0.598E-06    2.46       0.0  T
   2    -22.7215990 -0.426326E-13  0.405E-06    2.46    7442.8  T
   3    -22.7215990  0.213163E-13  0.207E-06    2.46   14556.5  T

   *** convergence criteria satisfied after 3 iterations ***

         #    Occupation            Energy/Eh            Energy/eV
      -------------------------------------------------------------
         1        2.0000           -1.0009588             -27.2375
       ...           ...                  ...                  ...
        14        2.0000           -0.3899661             -10.6115
        15        2.0000           -0.3840646             -10.4509
        16        2.0000           -0.3686599             -10.0317
        17        2.0000           -0.3609174              -9.8211
        18        2.0000           -0.3555911              -9.6761
        19        2.0000           -0.3500376              -9.5250
        20        2.0000           -0.3493930              -9.5075 (HOMO)
        21                         -0.2590214              -7.0483 (LUMO)
        22                         -0.0542134              -1.4752
        23                         -0.0050562              -0.1376
        24                          0.0285956               0.7781
        25                          0.0594874               1.6187
       ...                                ...                  ...
        41                          1.4255521              38.7912
      -------------------------------------------------------------
                  HL-Gap            0.0903716 Eh            2.4591 eV
             Fermi-level           -0.3042072 Eh           -8.2779 eV

 SCC (total)                   0 d,  0 h,  0 min,  0.015 sec
 SCC setup                      ...        0 min,  0.000 sec (  0.940%)
 Dispersion                     ...        0 min,  0.000 sec (  0.258%)
 classical contributions        ...        0 min,  0.000 sec (  0.111%)
 integral evaluation            ...        0 min,  0.003 sec ( 19.824%)
 iterations                     ...        0 min,  0.007 sec ( 48.811%)
 molecular gradient             ...        0 min,  0.004 sec ( 28.890%)
 printout                       ...        0 min,  0.000 sec (  1.060%)

         :::::::::::::::::::::::::::::::::::::::::::::::::::::
         ::                     SUMMARY                     ::
         :::::::::::::::::::::::::::::::::::::::::::::::::::::
         :: total energy             -22.611353289787 Eh    ::
         :: gradient norm              0.000198010092 Eh/a0 ::
         :: HOMO-LUMO gap              2.459135317585 eV    ::
         ::.................................................::
         :: SCC energy               -22.721598955511 Eh    ::
         :: -> isotropic ES            0.058347007139 Eh    ::
         :: -> anisotropic ES         -0.007516845216 Eh    ::
         :: -> anisotropic XC          0.001123598493 Eh    ::
         :: -> dispersion             -0.008231732550 Eh    ::
         :: repulsion energy           0.110221479842 Eh    ::
         :: add. restraining           0.000000000000 Eh    ::
         :: total charge              -0.000000000000 e     ::
         :::::::::::::::::::::::::::::::::::::::::::::::::::::

           -------------------------------------------------
          |                Property Printout                |
           -------------------------------------------------

    * Orbital Energies and Occupations

         #    Occupation            Energy/Eh            Energy/eV
      -------------------------------------------------------------
         1        2.0000           -1.0009588             -27.2375
       ...           ...                  ...                  ...
         8        2.0000           -0.5586698             -15.2022
         9        2.0000           -0.5197906             -14.1442
        10        2.0000           -0.4763773             -12.9629
        11        2.0000           -0.4102079             -11.1623
        12        2.0000           -0.3961348             -10.7794
        13        2.0000           -0.3910275             -10.6404
        14        2.0000           -0.3899661             -10.6115
        15        2.0000           -0.3840646             -10.4509
        16        2.0000           -0.3686599             -10.0317
        17        2.0000           -0.3609174              -9.8211
        18        2.0000           -0.3555911              -9.6761
        19        2.0000           -0.3500376              -9.5250
        20        2.0000           -0.3493930              -9.5075 (HOMO)
        21                         -0.2590214              -7.0483 (LUMO)
        22                         -0.0542134              -1.4752
        23                         -0.0050562              -0.1376
        24                          0.0285956               0.7781
        25                          0.0594874               1.6187
        26                          0.0884014               2.4055
        27                          0.0900636               2.4508
        28                          0.0904487               2.4612
        29                          0.0910629               2.4779
        30                          0.0919410               2.5018
        31                          0.0978926               2.6638
       ...                                ...                  ...
        41                          1.4255521              38.7912
      -------------------------------------------------------------
                  HL-Gap            0.0903716 Eh            2.4591 eV
             Fermi-level           -0.3042072 Eh           -8.2779 eV

     #   Z          covCN         q      C6AA      α(0)
     1  78 Pt       3.250    -0.041   348.073    35.154
     2  17 Cl       0.850    -0.328   109.646    16.019
     3  17 Cl       0.850    -0.328   109.646    16.019
     4   7 N        3.360    -0.282    27.268     7.756
     5   1 H        0.860     0.196     1.126     1.662
     6   1 H        0.860     0.196     1.126     1.662
     7   7 N        3.360    -0.282    27.268     7.756
     8   1 H        0.860     0.196     1.126     1.662
     9   1 H        0.860     0.196     1.126     1.662
    10   1 H        0.860     0.239     0.929     1.510
    11   1 H        0.860     0.239     0.929     1.510

 Mol. C6AA /au·bohr⁶  :       3140.468323
 Mol. C8AA /au·bohr⁸  :     155841.876947
 Mol. α(0) /au        :         92.370330


Wiberg/Mayer (AO) data.
largest (>0.10) Wiberg bond orders for each atom

 ---------------------------------------------------------------------------
     #   Z sym  total        # sym  WBO       # sym  WBO       # sym  WBO
 ---------------------------------------------------------------------------
     1  78 Pt   3.088 --     3 Cl   0.982     2 Cl   0.982     7 N    0.507
                             4 N    0.507
     2  17 Cl   1.128 --     1 Pt   0.982
     3  17 Cl   1.128 --     1 Pt   0.982
     4   7 N    3.406 --     6 H    0.942     5 H    0.942    10 H    0.904
                             1 Pt   0.507
     5   1 H    0.962 --     4 N    0.942
     6   1 H    0.962 --     4 N    0.942
     7   7 N    3.406 --     8 H    0.942     9 H    0.942    11 H    0.904
                             1 Pt   0.507
     8   1 H    0.962 --     7 N    0.942
     9   1 H    0.962 --     7 N    0.942
    10   1 H    0.943 --     4 N    0.904
    11   1 H    0.943 --     7 N    0.904
 ---------------------------------------------------------------------------

Topologies differ in total number of bonds
Writing topology from bond orders to xtbtopo.mol

MOs/occ written to file <molden.input>


molecular dipole:
                 x           y           z       tot (Debye)
 q only:       -0.000      -0.000      -3.992
   full:        0.000      -0.000      -4.233      10.760
molecular quadrupole (traceless):
                xx          xy          yy          xz          yz          zz
 q only:       -4.143       0.000       2.431      -0.000       0.000       1.712
  q+dip:       -4.343       0.000      -1.041      -0.000       0.000       5.384
   full:       -5.359       0.000      -0.330      -0.000       0.000       5.689


           -------------------------------------------------
          | TOTAL ENERGY              -22.611353289787 Eh   |
          | GRADIENT NORM               0.000198010092 Eh/α |
          | HOMO-LUMO GAP               2.459135317585 eV   |
           -------------------------------------------------

------------------------------------------------------------------------
 * finished run on 2021/06/20 at 23:02:40.506     
------------------------------------------------------------------------
 total:
 * wall-time:     0 d,  0 h,  0 min,  0.039 sec
 *  cpu-time:     0 d,  0 h,  0 min,  0.209 sec
 * ratio c/w:     5.347 speedup
 SCF:
 * wall-time:     0 d,  0 h,  0 min,  0.015 sec
 *  cpu-time:     0 d,  0 h,  0 min,  0.081 sec
 * ratio c/w:     5.498 speedup

