
     Program PWSCF v.6.7MaX starts on 10Jul2021 at 22:10:39 

     This program is part of the open-source Quantum ESPRESSO suite
     for quantum simulation of materials; please cite
         "P. Giannozzi et al., J. Phys.:Condens. Matter 21 395502 (2009);
         "P. Giannozzi et al., J. Phys.:Condens. Matter 29 465901 (2017);
          URL http://www.quantum-espresso.org", 
     in publications or presentations arising from this work. More details at
     http://www.quantum-espresso.org/quote

     Parallel version (MPI & OpenMP), running on       1 processor cores
     Number of MPI processes:                 1
     Threads/MPI process:                     1

     MPI processes distributed on     1 nodes
     Reading input from zns_wurtzite_opt.in

     Current dimensions of program PWSCF are:
     Max number of different atomic species (ntypx) = 10
     Max number of k-points (npk) =  40000
     Max angular momentum in pseudopotentials (lmaxx) =  3

     Subspace diagonalization in iterative solution of the eigenvalue problem:
     a serial algorithm will be used


     G-vector sticks info
     --------------------
     sticks:   dense  smooth     PW     G-vecs:    dense   smooth      PW
     Sum         721     583    163                25277    18137    2973



     bravais-lattice index     =            4
     lattice parameter (alat)  =       7.2017  a.u.
     unit-cell volume          =     529.1416 (a.u.)^3
     number of atoms/cell      =            4
     number of atomic types    =            2
     number of electrons       =        52.00
     number of Kohn-Sham states=           26
     kinetic-energy cutoff     =      40.0000  Ry
     charge density cutoff     =     200.0000  Ry
     scf convergence threshold =      1.0E-06
     mixing beta               =       0.7000
     number of iterations used =            8  plain     mixing
     energy convergence thresh.=      1.0E-04
     force convergence thresh. =      1.0E-03
     press convergence thresh. =      5.0E-01
     Exchange-correlation=  SLA  PW   PBX  PBC
                           (   1   4   3   4   0   0   0)
     nstep                     =           50


     celldm(1)=   7.201746  celldm(2)=   0.000000  celldm(3)=   1.635791
     celldm(4)=   0.000000  celldm(5)=   0.000000  celldm(6)=   0.000000

     crystal axes: (cart. coord. in units of alat)
               a(1) = (   1.000000   0.000000   0.000000 )  
               a(2) = (  -0.500000   0.866025   0.000000 )  
               a(3) = (   0.000000   0.000000   1.635791 )  

     reciprocal axes: (cart. coord. in units 2 pi/alat)
               b(1) = (  1.000000  0.577350 -0.000000 )  
               b(2) = (  0.000000  1.154701  0.000000 )  
               b(3) = (  0.000000 -0.000000  0.611325 )  


     PseudoPot. # 1 for Zn read from file:
     /home/antti/espresso/pseudo/zn_pbe_v1.uspp.F.UPF
     MD5 check sum: df62231357ef9e81f77b2b3087fa5675
     Pseudo is Ultrasoft, Zval = 20.0
     Generated by new atomic code, or converted to UPF format
     Using radial grid of  943 points,  6 beta functions with: 
                l(1) =   0
                l(2) =   0
                l(3) =   1
                l(4) =   1
                l(5) =   2
                l(6) =   2
     Q(r) pseudized with  8 coefficients,  rinner =    1.100   1.100   1.100
                                                       1.100   1.100

     PseudoPot. # 2 for S  read from file:
     /home/antti/espresso/pseudo/s_pbe_v1.4.uspp.F.UPF
     MD5 check sum: 88d86576ff6df21479756cfb9bdac1df
     Pseudo is Ultrasoft + core correction, Zval =  6.0
     Generated by new atomic code, or converted to UPF format
     Using radial grid of  907 points,  6 beta functions with: 
                l(1) =   0
                l(2) =   0
                l(3) =   1
                l(4) =   1
                l(5) =   2
                l(6) =   2
     Q(r) pseudized with  8 coefficients,  rinner =    1.300   1.300   1.300
                                                       1.300   1.300

     atomic species   valence    mass     pseudopotential
        Zn            20.00    65.38000     Zn( 1.00)
        S              6.00    32.06500     S ( 1.00)

     12 Sym. Ops. (no inversion) found ( 6 have fractional translation)



   Cartesian axes

     site n.     atom                  positions (alat units)
         1           Zn  tau(   1) = (  -0.0000000   0.5773503   0.0000000  )
         2           Zn  tau(   2) = (   0.5000000   0.2886751   0.8178956  )
         3           S   tau(   3) = (  -0.0000000   0.5773503   0.6297796  )
         4           S   tau(   4) = (   0.5000000   0.2886751   1.4476752  )

     number of k points=    30
                       cart. coord. in units 2pi/alat
        k(    1) = (   0.0000000   0.0000000   0.0000000), wk =   0.0078125
        k(    2) = (   0.0000000   0.0000000   0.1528312), wk =   0.0156250
        k(    3) = (   0.0000000   0.0000000  -0.3056625), wk =   0.0078125
        k(    4) = (   0.0000000   0.1443376   0.0000000), wk =   0.0468750
        k(    5) = (   0.0000000   0.1443376   0.1528312), wk =   0.0937500
        k(    6) = (   0.0000000   0.1443376  -0.3056625), wk =   0.0468750
        k(    7) = (   0.0000000   0.2886751   0.0000000), wk =   0.0468750
        k(    8) = (   0.0000000   0.2886751   0.1528312), wk =   0.0937500
        k(    9) = (   0.0000000   0.2886751  -0.3056625), wk =   0.0468750
        k(   10) = (   0.0000000   0.4330127   0.0000000), wk =   0.0468750
        k(   11) = (   0.0000000   0.4330127   0.1528312), wk =   0.0937500
        k(   12) = (   0.0000000   0.4330127  -0.3056625), wk =   0.0468750
        k(   13) = (   0.0000000  -0.5773503   0.0000000), wk =   0.0234375
        k(   14) = (   0.0000000  -0.5773503   0.1528312), wk =   0.0468750
        k(   15) = (   0.0000000  -0.5773503  -0.3056625), wk =   0.0234375
        k(   16) = (   0.1250000   0.2165064   0.0000000), wk =   0.0468750
        k(   17) = (   0.1250000   0.2165064   0.1528312), wk =   0.0937500
        k(   18) = (   0.1250000   0.2165064  -0.3056625), wk =   0.0468750
        k(   19) = (   0.1250000   0.3608439   0.0000000), wk =   0.0937500
        k(   20) = (   0.1250000   0.3608439   0.1528312), wk =   0.1875000
        k(   21) = (   0.1250000   0.3608439  -0.3056625), wk =   0.0937500
        k(   22) = (   0.1250000   0.5051815   0.0000000), wk =   0.0937500
        k(   23) = (   0.1250000   0.5051815   0.1528312), wk =   0.1875000
        k(   24) = (   0.1250000   0.5051815  -0.3056625), wk =   0.0937500
        k(   25) = (   0.2500000   0.4330127   0.0000000), wk =   0.0468750
        k(   26) = (   0.2500000   0.4330127   0.1528312), wk =   0.0937500
        k(   27) = (   0.2500000   0.4330127  -0.3056625), wk =   0.0468750
        k(   28) = (   0.2500000   0.5773503   0.0000000), wk =   0.0468750
        k(   29) = (   0.2500000   0.5773503   0.1528312), wk =   0.0937500
        k(   30) = (   0.2500000   0.5773503  -0.3056625), wk =   0.0468750

     Dense  grid:    25277 G-vectors     FFT dimensions: (  36,  36,  54)

     Smooth grid:    18137 G-vectors     FFT dimensions: (  30,  30,  48)

     Estimated max dynamical RAM per process >     128.39 MB

     Initial potential from superposition of free atoms

     starting charge   51.99964, renormalised to   52.00000
     Starting wfcs are   34 randomized atomic wfcs

     total cpu time spent up to now is        5.3 secs

     Self-consistent Calculation

     iteration #  1     ecut=    40.00 Ry     beta= 0.70
     Davidson diagonalization with overlap
     ethr =  1.00E-02,  avg # of iterations =  1.0

     Threshold (ethr) on eigenvalues was too large:
     Diagonalizing with lowered threshold

     Davidson diagonalization with overlap
     ethr =  4.04E-04,  avg # of iterations =  2.0

     total cpu time spent up to now is       12.5 secs

     total energy              =    -971.44832147 Ry
     estimated scf accuracy    <       0.21216411 Ry

     iteration #  2     ecut=    40.00 Ry     beta= 0.70
     Davidson diagonalization with overlap
     ethr =  4.08E-04,  avg # of iterations =  2.7

     total cpu time spent up to now is       15.7 secs

     total energy              =    -971.50306218 Ry
     estimated scf accuracy    <       0.15858047 Ry

     iteration #  3     ecut=    40.00 Ry     beta= 0.70
     Davidson diagonalization with overlap
     ethr =  3.05E-04,  avg # of iterations =  2.0

     total cpu time spent up to now is       18.7 secs

     total energy              =    -971.53607883 Ry
     estimated scf accuracy    <       0.00526893 Ry

     iteration #  4     ecut=    40.00 Ry     beta= 0.70
     Davidson diagonalization with overlap
     ethr =  1.01E-05,  avg # of iterations =  2.8

     total cpu time spent up to now is       22.2 secs

     total energy              =    -971.53750205 Ry
     estimated scf accuracy    <       0.00033610 Ry

     iteration #  5     ecut=    40.00 Ry     beta= 0.70
     Davidson diagonalization with overlap
     ethr =  6.46E-07,  avg # of iterations =  2.1

     total cpu time spent up to now is       25.2 secs

     total energy              =    -971.53752401 Ry
     estimated scf accuracy    <       0.00002633 Ry

     iteration #  6     ecut=    40.00 Ry     beta= 0.70
     Davidson diagonalization with overlap
     ethr =  5.06E-08,  avg # of iterations =  2.8

     total cpu time spent up to now is       28.2 secs

     total energy              =    -971.53752769 Ry
     estimated scf accuracy    <       0.00000327 Ry

     iteration #  7     ecut=    40.00 Ry     beta= 0.70
     Davidson diagonalization with overlap
     ethr =  6.29E-09,  avg # of iterations =  3.6

     total cpu time spent up to now is       32.1 secs

     total energy              =    -971.53752926 Ry
     estimated scf accuracy    <       0.00000182 Ry

     iteration #  8     ecut=    40.00 Ry     beta= 0.70
     Davidson diagonalization with overlap
     ethr =  3.50E-09,  avg # of iterations =  2.0

     total cpu time spent up to now is       35.3 secs

     End of self-consistent calculation

          k = 0.0000 0.0000 0.0000 (  2273 PWs)   bands (ev):

  -118.0565-118.0564 -72.2271 -72.2271 -72.2257 -72.2257 -72.2257 -72.2257
    -6.3648  -5.4390   0.4704   0.4704   0.5346   0.5346   0.5457   0.9540
     0.9540   1.0346   1.0346   1.1921   1.6685   5.9765   5.9765   6.8245
     6.8245   6.8352

          k = 0.0000 0.0000 0.1528 (  2262 PWs)   bands (ev):

  -118.0565-118.0564 -72.2271 -72.2271 -72.2257 -72.2257 -72.2257 -72.2257
    -6.2471  -5.5962   0.4764   0.4764   0.5217   0.5217   0.5399   0.7852
     0.9685   0.9685   1.0256   1.0256   2.5725   5.7499   6.0921   6.0921
     6.6907   6.6907

          k = 0.0000 0.0000-0.3057 (  2256 PWs)   bands (ev):

  -118.0564-118.0564 -72.2271 -72.2271 -72.2257 -72.2257 -72.2257 -72.2257
    -5.9410  -5.9410   0.4957   0.4957   0.4957   0.4957   0.5732   0.5732
     0.9997   0.9997   0.9997   0.9997   4.0764   4.0764   6.3823   6.3823
     6.3823   6.3823

          k = 0.0000 0.1443 0.0000 (  2261 PWs)   bands (ev):

  -118.0565-118.0564 -72.2271 -72.2271 -72.2257 -72.2257 -72.2257 -72.2257
    -6.2582  -5.3777   0.4620   0.4958   0.5420   0.5672   0.5719   0.9392
     0.9521   0.9732   1.0389   1.2446   1.8157   5.1746   5.7281   5.9491
     6.6773   6.7051

          k = 0.0000 0.1443 0.1528 (  2270 PWs)   bands (ev):

  -118.0565-118.0564 -72.2271 -72.2271 -72.2257 -72.2257 -72.2257 -72.2257
    -6.1449  -5.5252   0.4632   0.5031   0.5242   0.5535   0.5676   0.7804
     0.9606   0.9669   1.0282   1.0545   2.6511   5.2796   5.4070   5.8549
     6.3494   6.5237

          k = 0.0000 0.1443-0.3057 (  2276 PWs)   bands (ev):

  -118.0564-118.0564 -72.2271 -72.2271 -72.2257 -72.2257 -72.2257 -72.2257
    -5.8519  -5.8519   0.4820   0.4820   0.5251   0.5251   0.5981   0.5981
     0.9996   0.9996   1.0030   1.0030   4.0246   4.0246   5.7759   5.7759
     6.1761   6.1761

          k = 0.0000 0.2887 0.0000 (  2253 PWs)   bands (ev):

  -118.0564-118.0564 -72.2271 -72.2271 -72.2257 -72.2257 -72.2257 -72.2257
    -5.9722  -5.2342   0.4606   0.5523   0.5657   0.6500   0.6504   0.9083
     0.9276   0.9589   1.0485   1.2920   2.1608   3.8506   4.5822   5.2107
     6.2971   6.3237

          k = 0.0000 0.2887 0.1528 (  2258 PWs)   bands (ev):

  -118.0564-118.0564 -72.2271 -72.2271 -72.2257 -72.2257 -72.2257 -72.2257
    -5.8733  -5.3523   0.4573   0.5394   0.5644   0.6334   0.6409   0.7874
     0.9505   0.9720   1.0351   1.1180   2.7223   4.0522   4.3461   5.3566
     6.0875   6.1386

          k = 0.0000 0.2887-0.3057 (  2266 PWs)   bands (ev):

  -118.0564-118.0564 -72.2271 -72.2271 -72.2257 -72.2257 -72.2257 -72.2257
    -5.6224  -5.6224   0.4767   0.4767   0.5966   0.5966   0.6551   0.6551
     1.0034   1.0034   1.0194   1.0194   3.4902   3.4902   5.1809   5.1809
     5.7286   5.7286

          k = 0.0000 0.4330 0.0000 (  2264 PWs)   bands (ev):

  -118.0564-118.0564 -72.2271 -72.2271 -72.2257 -72.2257 -72.2257 -72.2257
    -5.6190  -5.1180   0.4918   0.5979   0.6296   0.7378   0.7735   0.8657
     0.9546   0.9871   1.0602   1.3468   2.1306   3.1308   3.5822   4.7584
     5.6763   5.9862

          k = 0.0000 0.4330 0.1528 (  2261 PWs)   bands (ev):

  -118.0564-118.0564 -72.2271 -72.2271 -72.2257 -72.2257 -72.2257 -72.2257
    -5.5460  -5.1909   0.4820   0.5802   0.6173   0.7168   0.7635   0.8159
     0.9858   0.9950   1.0457   1.2192   2.1920   2.9593   4.0970   4.9194
     5.7763   5.7805

          k = 0.0000 0.4330-0.3057 (  2266 PWs)   bands (ev):

  -118.0564-118.0564 -72.2271 -72.2271 -72.2257 -72.2257 -72.2257 -72.2257
    -5.3685  -5.3685   0.4959   0.4959   0.6662   0.6662   0.7609   0.7609
     1.0171   1.0171   1.0760   1.0760   2.4985   2.4985   5.2214   5.2214
     5.3284   5.3284

          k = 0.0000-0.5774 0.0000 (  2272 PWs)   bands (ev):

  -118.0564-118.0564 -72.2271 -72.2271 -72.2257 -72.2257 -72.2257 -72.2257
    -5.4256  -5.1028   0.5079   0.6124   0.7228   0.7746   0.8142   0.8678
     1.0074   1.0667   1.1294   1.1436   2.0137   2.6204   3.6785   4.5820
     5.2768   5.8512

          k = 0.0000-0.5774 0.1528 (  2258 PWs)   bands (ev):

  -118.0564-118.0564 -72.2271 -72.2271 -72.2257 -72.2257 -72.2257 -72.2257
    -5.3741  -5.1448   0.4954   0.6188   0.6355   0.7513   0.8172   0.8709
     1.0121   1.0521   1.1585   1.1820   1.8529   2.3376   4.3053   4.7490
     5.5339   5.6386

          k = 0.0000-0.5774-0.3057 (  2264 PWs)   bands (ev):

  -118.0564-118.0564 -72.2271 -72.2271 -72.2257 -72.2257 -72.2257 -72.2257
    -5.2546  -5.2546   0.5076   0.5076   0.6930   0.6930   0.8397   0.8397
     1.0275   1.0275   1.1928   1.1928   1.9388   1.9388   5.1719   5.1719
     5.3032   5.3032

          k = 0.1250 0.2165 0.0000 (  2249 PWs)   bands (ev):

  -118.0564-118.0564 -72.2271 -72.2271 -72.2257 -72.2257 -72.2257 -72.2257
    -6.0613  -5.2751   0.4678   0.5276   0.5755   0.5913   0.6405   0.9223
     0.9284   0.9540   1.0450   1.2802   2.0682   4.3127   4.8210   5.3526
     6.2965   6.4492

          k = 0.1250 0.2165 0.1528 (  2259 PWs)   bands (ev):

  -118.0564-118.0564 -72.2271 -72.2271 -72.2257 -72.2257 -72.2257 -72.2257
    -5.9574  -5.4029   0.4654   0.5294   0.5589   0.5816   0.6287   0.7809
     0.9510   0.9689   1.0325   1.1004   2.7417   4.5244   4.5605   5.3743
     6.1134   6.1953

          k = 0.1250 0.2165-0.3057 (  2264 PWs)   bands (ev):

  -118.0564-118.0564 -72.2271 -72.2271 -72.2257 -72.2257 -72.2257 -72.2257
    -5.6921  -5.6921   0.4837   0.4837   0.5671   0.5671   0.6362   0.6362
     0.9994   0.9994   1.0157   1.0157   3.7370   3.7370   5.3049   5.3049
     5.7273   5.7273

          k = 0.1250 0.3608 0.0000 (  2262 PWs)   bands (ev):

  -118.0564-118.0564 -72.2271 -72.2271 -72.2257 -72.2257 -72.2257 -72.2257
    -5.7360  -5.1454   0.5093   0.5678   0.6244   0.6792   0.7336   0.8966
     0.9255   0.9629   1.0575   1.3364   2.2700   3.4729   3.8367   4.5763
     5.7911   5.9414

          k = 0.1250 0.3608 0.1528 (  2254 PWs)   bands (ev):

  -118.0564-118.0564 -72.2271 -72.2271 -72.2257 -72.2257 -72.2257 -72.2257
    -5.6529  -5.2349   0.5028   0.5671   0.6110   0.6653   0.7146   0.7959
     0.9530   0.9838   1.0455   1.1844   2.5130   3.4352   4.1206   4.7086
     5.5610   5.9663

          k = 0.1250 0.3608-0.3057 (  2252 PWs)   bands (ev):

  -118.0564-118.0564 -72.2271 -72.2271 -72.2257 -72.2257 -72.2257 -72.2257
    -5.4472  -5.4472   0.5160   0.5160   0.6372   0.6372   0.6967   0.6967
     1.0038   1.0038   1.0589   1.0589   2.9397   2.9397   5.0123   5.0123
     5.3421   5.3421

          k = 0.1250 0.5052 0.0000 (  2263 PWs)   bands (ev):

  -118.0564-118.0564 -72.2271 -72.2271 -72.2257 -72.2257 -72.2257 -72.2257
    -5.4353  -5.0981   0.5303   0.6122   0.7423   0.7660   0.8320   0.8554
     0.9807   0.9871   1.0828   1.3133   2.0572   2.8190   3.6533   4.2344
     5.3236   5.4822

          k = 0.1250 0.5052 0.1528 (  2267 PWs)   bands (ev):

  -118.0564-118.0564 -72.2271 -72.2271 -72.2257 -72.2257 -72.2257 -72.2257
    -5.3820  -5.1426   0.5268   0.6235   0.6596   0.7474   0.8168   0.8304
     0.9942   1.0067   1.0961   1.2843   1.9667   2.5492   4.0912   4.5761
     5.2053   5.6206

          k = 0.1250 0.5052-0.3057 (  2258 PWs)   bands (ev):

  -118.0564-118.0564 -72.2271 -72.2271 -72.2257 -72.2257 -72.2257 -72.2257
    -5.2579  -5.2579   0.5446   0.5446   0.6891   0.6891   0.8041   0.8041
     1.0076   1.0076   1.1777   1.1777   2.1381   2.1381   4.6644   4.6644
     5.4398   5.4398

          k = 0.2500 0.4330 0.0000 (  2261 PWs)   bands (ev):

  -118.0564-118.0564 -72.2271 -72.2271 -72.2257 -72.2257 -72.2257 -72.2257
    -5.4446  -5.0938   0.5481   0.6404   0.7285   0.7685   0.7996   0.9081
     0.9253   0.9538   1.0811   1.3885   2.1767   3.0155   3.6490   3.8742
     5.0776   5.3983

          k = 0.2500 0.4330 0.1528 (  2252 PWs)   bands (ev):

  -118.0564-118.0564 -72.2271 -72.2271 -72.2257 -72.2257 -72.2257 -72.2257
    -5.3897  -5.1406   0.5689   0.6201   0.7167   0.7279   0.7698   0.8139
     0.9626   0.9862   1.0903   1.3088   2.1630   2.7756   3.7837   4.4602
     4.8310   5.6593

          k = 0.2500 0.4330-0.3057 (  2250 PWs)   bands (ev):

  -118.0564-118.0564 -72.2271 -72.2271 -72.2257 -72.2257 -72.2257 -72.2257
    -5.2611  -5.2611   0.5939   0.5939   0.7017   0.7017   0.7357   0.7357
     0.9929   0.9929   1.1711   1.1711   2.3755   2.3755   4.2435   4.2435
     5.4678   5.4678

          k = 0.2500 0.5774 0.0000 (  2249 PWs)   bands (ev):

  -118.0564-118.0564 -72.2271 -72.2271 -72.2257 -72.2257 -72.2257 -72.2257
    -5.2653  -5.1253   0.5437   0.6805   0.7637   0.8139   0.9006   0.9137
     0.9580   0.9781   1.1585   1.2473   2.2682   2.6277   3.1703   4.3225
     4.7661   4.9365

          k = 0.2500 0.5774 0.1528 (  2269 PWs)   bands (ev):

  -118.0564-118.0564 -72.2271 -72.2271 -72.2257 -72.2257 -72.2257 -72.2257
    -5.2377  -5.1382   0.5725   0.6642   0.7162   0.7749   0.8612   0.8634
     0.9634   0.9746   1.2107   1.2946   2.0891   2.3652   3.3785   4.4896
     4.8597   5.3371

          k = 0.2500 0.5774-0.3057 (  2258 PWs)   bands (ev):

  -118.0564-118.0564 -72.2271 -72.2271 -72.2257 -72.2257 -72.2257 -72.2257
    -5.1805  -5.1805   0.6279   0.6279   0.6888   0.6888   0.8381   0.8381
     0.9653   0.9653   1.2952   1.2952   2.0593   2.0593   3.8998   3.8998
     5.5560   5.5560

     highest occupied level (ev):     6.8352

!    total energy              =    -971.53752964 Ry
     estimated scf accuracy    <       0.00000003 Ry

     The total energy is the sum of the following terms:
     one-electron contribution =    -908.87839239 Ry
     hartree contribution      =     468.37627384 Ry
     xc contribution           =    -101.42034621 Ry
     ewald contribution        =    -429.61506488 Ry

     convergence has been achieved in   8 iterations

     Forces acting on atoms (cartesian axes, Ry/au):

     atom    1 type  1   force =     0.00000000   -0.00000000    0.01250033
     atom    2 type  1   force =    -0.00000000   -0.00000000    0.01250033
     atom    3 type  2   force =     0.00000000    0.00000000   -0.01250033
     atom    4 type  2   force =     0.00000000    0.00000000   -0.01250033

     Total force =     0.025001     Total SCF correction =     0.000076


     Computing stress (Cartesian axis) and pressure

          total   stress  (Ry/bohr**3)                   (kbar)     P=       24.11
   0.00021056   0.00000000   0.00000000           30.97        0.00        0.00
   0.00000000   0.00021056   0.00000000            0.00       30.97        0.00
   0.00000000   0.00000000   0.00007058            0.00        0.00       10.38


     BFGS Geometry Optimization
     Energy error            =      0.0E+00
     Gradient error          =      1.3E-02
     Cell gradient error     =      2.1E-04


     number of scf cycles    =   1
     number of bfgs steps    =   0

     enthalpy new            =    -971.5375296384 Ry

     new trust radius        =       0.0242177064 bohr
     new conv_thr            =       0.0000010000 Ry

     new unit-cell volume =    535.67058 a.u.^3 (    79.37819 Ang^3 )
     density =      4.07697 g/cm^3

CELL_PARAMETERS (alat=  7.20174626)
   1.005264014   0.000000000   0.000000000
  -0.502632007   0.870584174   0.000000000
   0.000000000   0.000000000   1.638677319

ATOMIC_POSITIONS (crystal)
Zn            0.3333333333        0.6666666667        0.0010610985
Zn            0.6666666667        0.3333333333        0.5010610985
S             0.3333333333        0.6666666667        0.3839389015
S             0.6666666667        0.3333333333        0.8839389015



     Writing output data file ./zns.save/
     NEW-OLD atomic charge density approx. for the potential
     extrapolated charge   52.63379, renormalised to   52.00000

     total cpu time spent up to now is       41.2 secs

     Self-consistent Calculation

     iteration #  1     ecut=    40.00 Ry     beta= 0.70
     Davidson diagonalization with overlap
     ethr =  1.00E-06,  avg # of iterations =  8.8

     total cpu time spent up to now is       48.3 secs

     total energy              =    -970.80211334 Ry
     estimated scf accuracy    <       0.61723935 Ry

     iteration #  2     ecut=    40.00 Ry     beta= 0.70
     Davidson diagonalization with overlap
     ethr =  1.19E-03,  avg # of iterations =  3.0

     total cpu time spent up to now is       52.1 secs

     total energy              =    -971.40720976 Ry
     estimated scf accuracy    <       2.71464267 Ry

     iteration #  3     ecut=    40.00 Ry     beta= 0.70
     Davidson diagonalization with overlap
     ethr =  1.19E-03,  avg # of iterations =  2.0

     total cpu time spent up to now is       55.2 secs

     total energy              =    -971.54629561 Ry
     estimated scf accuracy    <       0.39226495 Ry

     iteration #  4     ecut=    40.00 Ry     beta= 0.70
     Davidson diagonalization with overlap
     ethr =  7.54E-04,  avg # of iterations =  2.0

     total cpu time spent up to now is       57.9 secs

     total energy              =    -971.56097109 Ry
     estimated scf accuracy    <       0.11881774 Ry

     iteration #  5     ecut=    40.00 Ry     beta= 0.70
     Davidson diagonalization with overlap
     ethr =  2.28E-04,  avg # of iterations =  1.0

     total cpu time spent up to now is       60.3 secs

     total energy              =    -971.54256980 Ry
     estimated scf accuracy    <       0.09054543 Ry

     iteration #  6     ecut=    40.00 Ry     beta= 0.70
     Davidson diagonalization with overlap
     ethr =  1.74E-04,  avg # of iterations =  1.1

     total cpu time spent up to now is       62.8 secs

     total energy              =    -971.54099752 Ry
     estimated scf accuracy    <       0.03092133 Ry

     iteration #  7     ecut=    40.00 Ry     beta= 0.70
     Davidson diagonalization with overlap
     ethr =  5.95E-05,  avg # of iterations =  1.8

     total cpu time spent up to now is       65.2 secs

     total energy              =    -971.53623597 Ry
     estimated scf accuracy    <       0.01293029 Ry

     iteration #  8     ecut=    40.00 Ry     beta= 0.70
     Davidson diagonalization with overlap
     ethr =  2.49E-05,  avg # of iterations =  2.1

     total cpu time spent up to now is       68.1 secs

     total energy              =    -971.53895480 Ry
     estimated scf accuracy    <       0.00013216 Ry

     iteration #  9     ecut=    40.00 Ry     beta= 0.70
     Davidson diagonalization with overlap
     ethr =  2.54E-07,  avg # of iterations =  4.8

     total cpu time spent up to now is       72.2 secs

     total energy              =    -971.53908844 Ry
     estimated scf accuracy    <       0.00007824 Ry

     iteration # 10     ecut=    40.00 Ry     beta= 0.70
     Davidson diagonalization with overlap
     ethr =  1.50E-07,  avg # of iterations =  2.0

     total cpu time spent up to now is       75.0 secs

     total energy              =    -971.53924349 Ry
     estimated scf accuracy    <       0.00011937 Ry

     iteration # 11     ecut=    40.00 Ry     beta= 0.70
     Davidson diagonalization with overlap
     ethr =  1.50E-07,  avg # of iterations =  3.5

     total cpu time spent up to now is       79.5 secs

     total energy              =    -971.53980188 Ry
     estimated scf accuracy    <       0.00113955 Ry

     iteration # 12     ecut=    40.00 Ry     beta= 0.70
     Davidson diagonalization with overlap
     ethr =  1.50E-07,  avg # of iterations =  3.0

     total cpu time spent up to now is       83.4 secs

     total energy              =    -971.53959700 Ry
     estimated scf accuracy    <       0.00309250 Ry

     iteration # 13     ecut=    40.00 Ry     beta= 0.70
     Davidson diagonalization with overlap
     ethr =  1.50E-07,  avg # of iterations =  2.0

     total cpu time spent up to now is       86.4 secs

     total energy              =    -971.53960318 Ry
     estimated scf accuracy    <       0.00213158 Ry

     iteration # 14     ecut=    40.00 Ry     beta= 0.70
     Davidson diagonalization with overlap
     ethr =  1.50E-07,  avg # of iterations =  1.0

     total cpu time spent up to now is       88.7 secs

     total energy              =    -971.53960014 Ry
     estimated scf accuracy    <       0.00204198 Ry

     iteration # 15     ecut=    40.00 Ry     beta= 0.70
     Davidson diagonalization with overlap
     ethr =  1.50E-07,  avg # of iterations =  1.0

     total cpu time spent up to now is       91.1 secs

     total energy              =    -971.53989097 Ry
     estimated scf accuracy    <       0.00204098 Ry

     iteration # 16     ecut=    40.00 Ry     beta= 0.70
     Davidson diagonalization with overlap
     ethr =  1.50E-07,  avg # of iterations =  2.0

     total cpu time spent up to now is       94.0 secs

     total energy              =    -971.53997975 Ry
     estimated scf accuracy    <       0.00307412 Ry

     iteration # 17     ecut=    40.00 Ry     beta= 0.70
     Davidson diagonalization with overlap
     ethr =  1.50E-07,  avg # of iterations =  1.0

     total cpu time spent up to now is       96.5 secs

     total energy              =    -971.53873295 Ry
     estimated scf accuracy    <       0.00337475 Ry

     iteration # 18     ecut=    40.00 Ry     beta= 0.70
     Davidson diagonalization with overlap
     ethr =  1.50E-07,  avg # of iterations =  4.3

     total cpu time spent up to now is      100.5 secs

     total energy              =    -971.53905619 Ry
     estimated scf accuracy    <       0.00022943 Ry

     iteration # 19     ecut=    40.00 Ry     beta= 0.70
     Davidson diagonalization with overlap
     ethr =  1.50E-07,  avg # of iterations =  2.0

     total cpu time spent up to now is      103.3 secs

     total energy              =    -971.53904071 Ry
     estimated scf accuracy    <       0.00008069 Ry

     iteration # 20     ecut=    40.00 Ry     beta= 0.70
     Davidson diagonalization with overlap
     ethr =  1.50E-07,  avg # of iterations =  2.0

     total cpu time spent up to now is      106.1 secs

     total energy              =    -971.53904461 Ry
     estimated scf accuracy    <       0.00001117 Ry

     iteration # 21     ecut=    40.00 Ry     beta= 0.70
     Davidson diagonalization with overlap
     ethr =  2.15E-08,  avg # of iterations =  2.4

     total cpu time spent up to now is      108.9 secs

     End of self-consistent calculation

          k = 0.0000 0.0000 0.0000 (  2273 PWs)   bands (ev):

  -118.1961-118.1960 -72.3667 -72.3666 -72.3656 -72.3656 -72.3655 -72.3655
    -6.4471  -5.5303   0.3568   0.3568   0.4092   0.4241   0.4241   0.8171
     0.8171   0.8957   0.8957   1.0569   1.5372   5.8028   5.8028   6.6551
     6.6551   6.6652

          k =-0.0000-0.0000 0.1526 (  2262 PWs)   bands (ev):

  -118.1961-118.1961 -72.3667 -72.3666 -72.3655 -72.3655 -72.3655 -72.3655
    -6.3304  -5.6858   0.3631   0.3631   0.4037   0.4106   0.4106   0.6517
     0.8313   0.8313   0.8870   0.8870   2.4342   5.5842   5.9189   5.9189
     6.5205   6.5205

          k = 0.0000 0.0000-0.3051 (  2256 PWs)   bands (ev):

  -118.1961-118.1961 -72.3666 -72.3666 -72.3655 -72.3655 -72.3655 -72.3655
    -6.0271  -6.0271   0.3834   0.3834   0.3834   0.3834   0.4383   0.4383
     0.8619   0.8619   0.8619   0.8619   3.9255   3.9255   6.2105   6.2105
     6.2105   6.2105

          k = 0.0000 0.1436 0.0000 (  2261 PWs)   bands (ev):

  -118.1961-118.1960 -72.3667 -72.3666 -72.3656 -72.3656 -72.3656 -72.3655
    -6.3434  -5.4719   0.3491   0.3804   0.4242   0.4429   0.4552   0.8032
     0.8155   0.8410   0.8999   1.1004   1.6833   5.0203   5.5618   5.7871
     6.5156   6.5335

          k =-0.0000 0.1436 0.1526 (  2270 PWs)   bands (ev):

  -118.1961-118.1960 -72.3667 -72.3666 -72.3656 -72.3656 -72.3656 -72.3655
    -6.2311  -5.6177   0.3496   0.3881   0.4113   0.4355   0.4409   0.6482
     0.8237   0.8300   0.8896   0.9136   2.5093   5.1191   5.2463   5.6892
     6.1934   6.3611

          k = 0.0000 0.1436-0.3051 (  2276 PWs)   bands (ev):

  -118.1961-118.1961 -72.3666 -72.3666 -72.3656 -72.3656 -72.3656 -72.3656
    -5.9409  -5.9409   0.3693   0.3693   0.4113   0.4113   0.4649   0.4649
     0.8619   0.8619   0.8648   0.8648   3.8679   3.8679   5.6248   5.6248
     6.0118   6.0118

          k = 0.0000 0.2872 0.0000 (  2253 PWs)   bands (ev):

  -118.1961-118.1960 -72.3667 -72.3666 -72.3656 -72.3656 -72.3656 -72.3656
    -6.0653  -5.3361   0.3496   0.4324   0.4466   0.5214   0.5342   0.7733
     0.7984   0.8231   0.9095   1.1453   2.0204   3.7270   4.4431   5.0591
     6.1247   6.1784

          k =-0.0000 0.2872 0.1526 (  2258 PWs)   bands (ev):

  -118.1961-118.1960 -72.3667 -72.3666 -72.3656 -72.3656 -72.3656 -72.3656
    -5.9674  -5.4525   0.3455   0.4242   0.4451   0.5118   0.5170   0.6566
     0.8146   0.8357   0.8966   0.9747   2.5728   3.9164   4.2137   5.2057
     5.9301   5.9920

          k = 0.0000 0.2872-0.3051 (  2266 PWs)   bands (ev):

  -118.1961-118.1961 -72.3666 -72.3666 -72.3656 -72.3656 -72.3656 -72.3656
    -5.7193  -5.7193   0.3646   0.3646   0.4787   0.4787   0.5239   0.5239
     0.8660   0.8660   0.8803   0.8803   3.3382   3.3382   5.0470   5.0470
     5.5796   5.5796

          k = 0.0000 0.4307 0.0000 (  2264 PWs)   bands (ev):

  -118.1961-118.1960 -72.3667 -72.3666 -72.3656 -72.3656 -72.3656 -72.3656
    -5.7221  -5.2278   0.3777   0.4735   0.5104   0.6175   0.6445   0.7290
     0.8221   0.8515   0.9211   1.2005   2.0092   3.0160   3.4600   4.6197
     5.5091   5.8552

          k =-0.0000 0.4307 0.1526 (  2261 PWs)   bands (ev):

  -118.1961-118.1960 -72.3666 -72.3666 -72.3656 -72.3656 -72.3656 -72.3656
    -5.6501  -5.2997   0.3674   0.4636   0.4935   0.5959   0.6352   0.6808
     0.8514   0.8588   0.9070   1.0767   2.0678   2.8407   3.9665   4.7814
     5.6171   5.6478

          k = 0.0000 0.4307-0.3051 (  2266 PWs)   bands (ev):

  -118.1960-118.1960 -72.3666 -72.3666 -72.3656 -72.3656 -72.3656 -72.3656
    -5.4749  -5.4749   0.3809   0.3809   0.5438   0.5438   0.6306   0.6306
     0.8797   0.8797   0.9374   0.9374   2.3747   2.3747   5.0774   5.0774
     5.1927   5.1927

          k = 0.0000-0.5743 0.0000 (  2272 PWs)   bands (ev):

  -118.1960-118.1960 -72.3666 -72.3666 -72.3656 -72.3656 -72.3656 -72.3656
    -5.5344  -5.2156   0.3903   0.4863   0.6076   0.6523   0.6709   0.7351
     0.8713   0.9275   0.9956   1.0064   1.8985   2.5302   3.5390   4.4484
     5.1163   5.7258

          k =-0.0000-0.5743 0.1526 (  2258 PWs)   bands (ev):

  -118.1960-118.1960 -72.3666 -72.3666 -72.3656 -72.3656 -72.3656 -72.3656
    -5.4834  -5.2570   0.3779   0.5016   0.5099   0.6284   0.6767   0.7398
     0.8757   0.9133   1.0200   1.0445   1.7413   2.2410   4.1633   4.6161
     5.3779   5.5113

          k = 0.0000-0.5743-0.3051 (  2264 PWs)   bands (ev):

  -118.1960-118.1960 -72.3666 -72.3666 -72.3656 -72.3656 -72.3656 -72.3656
    -5.3655  -5.3655   0.3904   0.3904   0.5688   0.5688   0.7048   0.7048
     0.8899   0.8899   1.0521   1.0521   1.8350   1.8350   5.0414   5.0414
     5.1538   5.1538

          k = 0.1243 0.2154 0.0000 (  2249 PWs)   bands (ev):

  -118.1961-118.1960 -72.3667 -72.3666 -72.3656 -72.3656 -72.3656 -72.3656
    -6.1519  -5.3746   0.3563   0.4092   0.4597   0.4649   0.5204   0.7869
     0.7991   0.8183   0.9061   1.1334   1.9301   4.1800   4.6707   5.2029
     6.1505   6.2761

          k = 0.1243 0.2154 0.1526 (  2259 PWs)   bands (ev):

  -118.1961-118.1960 -72.3667 -72.3666 -72.3656 -72.3656 -72.3656 -72.3656
    -6.0491  -5.5008   0.3531   0.4136   0.4473   0.4538   0.5065   0.6501
     0.8144   0.8327   0.8941   0.9573   2.5932   4.3690   4.4297   5.2236
     5.9663   6.0390

          k = 0.1243 0.2154-0.3051 (  2264 PWs)   bands (ev):

  -118.1961-118.1961 -72.3666 -72.3666 -72.3656 -72.3656 -72.3656 -72.3656
    -5.7865  -5.7865   0.3719   0.3719   0.4493   0.4493   0.5052   0.5052
     0.8618   0.8618   0.8769   0.8769   3.5784   3.5784   5.1699   5.1699
     5.5784   5.5784

          k = 0.1243 0.3590 0.0000 (  2262 PWs)   bands (ev):

  -118.1961-118.1960 -72.3667 -72.3666 -72.3656 -72.3656 -72.3656 -72.3656
    -5.8357  -5.2529   0.3957   0.4470   0.5008   0.5560   0.6105   0.7617
     0.7957   0.8268   0.9186   1.1904   2.1326   3.3550   3.7095   4.4450
     5.6643   5.7708

          k = 0.1243 0.3590 0.1526 (  2254 PWs)   bands (ev):

  -118.1961-118.1960 -72.3666 -72.3666 -72.3656 -72.3656 -72.3656 -72.3656
    -5.7536  -5.3410   0.3889   0.4480   0.4889   0.5439   0.5906   0.6649
     0.8168   0.8480   0.9072   1.0414   2.3731   3.3022   3.9979   4.5766
     5.4318   5.8072

          k = 0.1243 0.3590-0.3051 (  2252 PWs)   bands (ev):

  -118.1961-118.1961 -72.3666 -72.3666 -72.3656 -72.3656 -72.3656 -72.3656
    -5.5505  -5.5505   0.4012   0.4012   0.5171   0.5171   0.5673   0.5673
     0.8662   0.8662   0.9198   0.9198   2.8015   2.8015   4.8813   4.8813
     5.2031   5.2031

          k = 0.1243 0.5025 0.0000 (  2263 PWs)   bands (ev):

  -118.1960-118.1960 -72.3666 -72.3666 -72.3656 -72.3656 -72.3656 -72.3656
    -5.5436  -5.2110   0.4101   0.4871   0.6164   0.6432   0.7061   0.7178
     0.8448   0.8535   0.9449   1.1686   1.9489   2.7149   3.5211   4.1084
     5.1643   5.3636

          k = 0.1243 0.5025 0.1526 (  2267 PWs)   bands (ev):

  -118.1960-118.1960 -72.3666 -72.3666 -72.3656 -72.3656 -72.3656 -72.3656
    -5.4910  -5.2547   0.4073   0.4982   0.5373   0.6242   0.6833   0.7007
     0.8581   0.8704   0.9590   1.1397   1.8568   2.4407   3.9626   4.4435
     5.0855   5.4655

          k = 0.1243 0.5025-0.3051 (  2258 PWs)   bands (ev):

  -118.1960-118.1960 -72.3666 -72.3666 -72.3656 -72.3656 -72.3656 -72.3656
    -5.3685  -5.3685   0.4248   0.4248   0.5644   0.5644   0.6739   0.6739
     0.8706   0.8706   1.0376   1.0376   2.0260   2.0260   4.5424   4.5424
     5.2929   5.2929

          k = 0.2487 0.4307 0.0000 (  2261 PWs)   bands (ev):

  -118.1960-118.1960 -72.3666 -72.3666 -72.3656 -72.3656 -72.3656 -72.3656
    -5.5525  -5.2067   0.4239   0.5166   0.6036   0.6369   0.6785   0.7746
     0.7950   0.8169   0.9430   1.2393   2.0673   2.8966   3.5393   3.7436
     4.9736   5.2342

          k = 0.2487 0.4307 0.1526 (  2252 PWs)   bands (ev):

  -118.1960-118.1960 -72.3666 -72.3666 -72.3656 -72.3656 -72.3656 -72.3656
    -5.4983  -5.2527   0.4456   0.4944   0.5884   0.6030   0.6466   0.6884
     0.8256   0.8503   0.9528   1.1635   2.0467   2.6541   3.6733   4.3290
     4.7216   5.5009

          k = 0.2487 0.4307-0.3051 (  2250 PWs)   bands (ev):

  -118.1960-118.1960 -72.3666 -72.3666 -72.3656 -72.3656 -72.3656 -72.3656
    -5.3715  -5.3715   0.4699   0.4699   0.5718   0.5718   0.6165   0.6165
     0.8557   0.8557   1.0309   1.0309   2.2532   2.2532   4.1351   4.1351
     5.3207   5.3207

          k = 0.2487 0.5743 0.0000 (  2249 PWs)   bands (ev):

  -118.1960-118.1960 -72.3666 -72.3666 -72.3656 -72.3656 -72.3656 -72.3656
    -5.3777  -5.2396   0.4187   0.5522   0.6320   0.6872   0.7599   0.7847
     0.8253   0.8437   1.0232   1.1070   2.1623   2.5247   3.0672   4.1782
     4.6683   4.7842

          k = 0.2487 0.5743 0.1526 (  2269 PWs)   bands (ev):

  -118.1960-118.1960 -72.3666 -72.3666 -72.3656 -72.3656 -72.3656 -72.3656
    -5.3505  -5.2523   0.4479   0.5342   0.5834   0.6491   0.7298   0.7361
     0.8296   0.8396   1.0709   1.1504   1.9823   2.2582   3.2761   4.3935
     4.7144   5.1834

          k = 0.2487 0.5743-0.3051 (  2258 PWs)   bands (ev):

  -118.1960-118.1960 -72.3666 -72.3666 -72.3656 -72.3656 -72.3656 -72.3656
    -5.2941  -5.2941   0.5000   0.5000   0.5607   0.5607   0.7111   0.7111
     0.8311   0.8311   1.1497   1.1497   1.9517   1.9517   3.7998   3.7998
     5.4054   5.4054

     highest occupied level (ev):     6.6652

!    total energy              =    -971.53904727 Ry
     estimated scf accuracy    <       0.00000010 Ry

     The total energy is the sum of the following terms:
     one-electron contribution =    -911.81956517 Ry
     hartree contribution      =     469.57793968 Ry
     xc contribution           =    -101.39820294 Ry
     ewald contribution        =    -427.89921884 Ry

     convergence has been achieved in  21 iterations

     Forces acting on atoms (cartesian axes, Ry/au):

     atom    1 type  1   force =    -0.00000000   -0.00000000    0.00905684
     atom    2 type  1   force =    -0.00000000   -0.00000000    0.00905684
     atom    3 type  2   force =     0.00000000    0.00000000   -0.00905684
     atom    4 type  2   force =     0.00000000   -0.00000000   -0.00905684

     Total force =     0.018114     Total SCF correction =     0.000092


     Computing stress (Cartesian axis) and pressure

          total   stress  (Ry/bohr**3)                   (kbar)     P=       11.61
   0.00010202   0.00000000  -0.00000000           15.01        0.00       -0.00
   0.00000000   0.00010202  -0.00000000            0.00       15.01       -0.00
  -0.00000000   0.00000000   0.00003269           -0.00        0.00        4.81

     Energy error            =      1.5E-03
     Gradient error          =      9.1E-03
     Cell gradient error     =      1.0E-04


     number of scf cycles    =   2
     number of bfgs steps    =   1

     enthalpy old            =    -971.5375296384 Ry
     enthalpy new            =    -971.5390472704 Ry

     CASE: enthalpy_new < enthalpy_old

     new trust radius        =       0.0266629680 bohr
     new conv_thr            =       0.0000000906 Ry

     new unit-cell volume =    542.86894 a.u.^3 (    80.44488 Ang^3 )
     density =      4.02291 g/cm^3

CELL_PARAMETERS (alat=  7.20174626)
   1.011054430   0.000000000   0.000000000
  -0.505527215   0.875598821   0.000000000
  -0.000000000  -0.000000000   1.641730399

ATOMIC_POSITIONS (crystal)
Zn            0.3333333333        0.6666666667        0.0027649943
Zn            0.6666666667        0.3333333333        0.5027649943
S             0.3333333333        0.6666666667        0.3822350057
S             0.6666666667        0.3333333333        0.8822350057



     Writing output data file ./zns.save/
     NEW-OLD atomic charge density approx. for the potential
     extrapolated charge   52.68951, renormalised to   52.00000

     total cpu time spent up to now is      114.6 secs

     Self-consistent Calculation

     iteration #  1     ecut=    40.00 Ry     beta= 0.70
     Davidson diagonalization with overlap
     ethr =  1.00E-06,  avg # of iterations =  9.2

     total cpu time spent up to now is      121.8 secs

     total energy              =    -970.63677701 Ry
     estimated scf accuracy    <       0.75811482 Ry

     iteration #  2     ecut=    40.00 Ry     beta= 0.70
     Davidson diagonalization with overlap
     ethr =  1.46E-03,  avg # of iterations =  3.0

     total cpu time spent up to now is      125.4 secs

     total energy              =    -971.39078411 Ry
     estimated scf accuracy    <       3.24473735 Ry

     iteration #  3     ecut=    40.00 Ry     beta= 0.70
     Davidson diagonalization with overlap
     ethr =  1.46E-03,  avg # of iterations =  2.0

     total cpu time spent up to now is      128.7 secs

     total energy              =    -971.54930528 Ry
     estimated scf accuracy    <       0.47964947 Ry

     iteration #  4     ecut=    40.00 Ry     beta= 0.70
     Davidson diagonalization with overlap
     ethr =  9.22E-04,  avg # of iterations =  2.0

     total cpu time spent up to now is      131.4 secs

     total energy              =    -971.56383104 Ry
     estimated scf accuracy    <       0.14490550 Ry

     iteration #  5     ecut=    40.00 Ry     beta= 0.70
     Davidson diagonalization with overlap
     ethr =  2.79E-04,  avg # of iterations =  1.0

     total cpu time spent up to now is      133.7 secs

     total energy              =    -971.53871669 Ry
     estimated scf accuracy    <       0.09978688 Ry

     iteration #  6     ecut=    40.00 Ry     beta= 0.70
     Davidson diagonalization with overlap
     ethr =  1.92E-04,  avg # of iterations =  2.0

     total cpu time spent up to now is      136.4 secs

     total energy              =    -971.54141299 Ry
     estimated scf accuracy    <       0.02483787 Ry

     iteration #  7     ecut=    40.00 Ry     beta= 0.70
     Davidson diagonalization with overlap
     ethr =  4.78E-05,  avg # of iterations =  1.3

     total cpu time spent up to now is      138.7 secs

     total energy              =    -971.53744668 Ry
     estimated scf accuracy    <       0.01083399 Ry

     iteration #  8     ecut=    40.00 Ry     beta= 0.70
     Davidson diagonalization with overlap
     ethr =  2.08E-05,  avg # of iterations =  2.1

     total cpu time spent up to now is      141.5 secs

     total energy              =    -971.53988932 Ry
     estimated scf accuracy    <       0.00007080 Ry

     iteration #  9     ecut=    40.00 Ry     beta= 0.70
     Davidson diagonalization with overlap
     ethr =  1.36E-07,  avg # of iterations =  5.7

     total cpu time spent up to now is      146.2 secs

     total energy              =    -971.54013962 Ry
     estimated scf accuracy    <       0.00034521 Ry

     iteration # 10     ecut=    40.00 Ry     beta= 0.70
     Davidson diagonalization with overlap
     ethr =  1.36E-07,  avg # of iterations =  1.0

     total cpu time spent up to now is      148.5 secs

     total energy              =    -971.54014037 Ry
     estimated scf accuracy    <       0.00036013 Ry

     iteration # 11     ecut=    40.00 Ry     beta= 0.70
     Davidson diagonalization with overlap
     ethr =  1.36E-07,  avg # of iterations =  1.0

     total cpu time spent up to now is      150.9 secs

     total energy              =    -971.53999614 Ry
     estimated scf accuracy    <       0.00035860 Ry

     iteration # 12     ecut=    40.00 Ry     beta= 0.70
     Davidson diagonalization with overlap
     ethr =  1.36E-07,  avg # of iterations =  3.0

     total cpu time spent up to now is      154.1 secs

     total energy              =    -971.54004010 Ry
     estimated scf accuracy    <       0.00002573 Ry

     iteration # 13     ecut=    40.00 Ry     beta= 0.70
     Davidson diagonalization with overlap
     ethr =  4.95E-08,  avg # of iterations =  1.0

     total cpu time spent up to now is      156.4 secs

     total energy              =    -971.54002981 Ry
     estimated scf accuracy    <       0.00002361 Ry

     iteration # 14     ecut=    40.00 Ry     beta= 0.70
     Davidson diagonalization with overlap
     ethr =  4.54E-08,  avg # of iterations =  2.0

     total cpu time spent up to now is      159.3 secs

     total energy              =    -971.54003486 Ry
     estimated scf accuracy    <       0.00000142 Ry

     iteration # 15     ecut=    40.00 Ry     beta= 0.70
     Davidson diagonalization with overlap
     ethr =  2.74E-09,  avg # of iterations =  2.0

     total cpu time spent up to now is      162.2 secs

     total energy              =    -971.54003513 Ry
     estimated scf accuracy    <       0.00000032 Ry

     iteration # 16     ecut=    40.00 Ry     beta= 0.70
     Davidson diagonalization with overlap
     ethr =  6.08E-10,  avg # of iterations =  3.0

     total cpu time spent up to now is      165.5 secs

     total energy              =    -971.54003508 Ry
     estimated scf accuracy    <       0.00000044 Ry

     iteration # 17     ecut=    40.00 Ry     beta= 0.70
     Davidson diagonalization with overlap
     ethr =  6.08E-10,  avg # of iterations =  2.0

     total cpu time spent up to now is      168.2 secs

     total energy              =    -971.54003504 Ry
     estimated scf accuracy    <       0.00000016 Ry

     iteration # 18     ecut=    40.00 Ry     beta= 0.70
     Davidson diagonalization with overlap
     ethr =  3.08E-10,  avg # of iterations =  2.0

     total cpu time spent up to now is      171.1 secs

     End of self-consistent calculation

          k = 0.0000 0.0000 0.0000 (  2273 PWs)   bands (ev):

  -118.3453-118.3453 -72.5155 -72.5154 -72.5151 -72.5151 -72.5150 -72.5150
    -6.5369  -5.6276   0.2376   0.2376   0.2574   0.3103   0.3103   0.6706
     0.6706   0.7467   0.7467   0.9093   1.3806   5.6139   5.6139   6.4744
     6.4768   6.4768

          k =-0.0000-0.0000 0.1523 (  2262 PWs)   bands (ev):

  -118.3453-118.3453 -72.5155 -72.5154 -72.5151 -72.5151 -72.5151 -72.5151
    -6.4211  -5.7816   0.2446   0.2446   0.2523   0.2959   0.2959   0.5021
     0.6845   0.6845   0.7385   0.7385   2.2745   5.3977   5.7314   5.7314
     6.3404   6.3404

          k = 0.0000 0.0000-0.3046 (  2256 PWs)   bands (ev):

  -118.3453-118.3453 -72.5154 -72.5154 -72.5150 -72.5150 -72.5150 -72.5150
    -6.1201  -6.1201   0.2666   0.2666   0.2666   0.2666   0.2877   0.2877
     0.7144   0.7144   0.7144   0.7144   3.7535   3.7535   6.0264   6.0264
     6.0264   6.0264

          k =-0.0000 0.1428 0.0000 (  2261 PWs)   bands (ev):

  -118.3453-118.3453 -72.5155 -72.5154 -72.5151 -72.5151 -72.5151 -72.5151
    -6.4364  -5.5727   0.2302   0.2589   0.2786   0.3234   0.3397   0.6577
     0.6695   0.6994   0.7510   0.9439   1.5253   4.8554   5.3816   5.6180
     6.3405   6.3470

          k =-0.0000 0.1428 0.1523 (  2270 PWs)   bands (ev):

  -118.3453-118.3453 -72.5155 -72.5154 -72.5151 -72.5151 -72.5151 -72.5151
    -6.3250  -5.7170   0.2277   0.2674   0.2789   0.3069   0.3244   0.5016
     0.6773   0.6836   0.7413   0.7620   2.3455   4.9442   5.0744   5.5104
     6.0241   6.1905

          k =-0.0000 0.1428-0.3046 (  2276 PWs)   bands (ev):

  -118.3453-118.3453 -72.5155 -72.5155 -72.5151 -72.5151 -72.5151 -72.5151
    -6.0372  -6.0372   0.2487   0.2487   0.2925   0.2925   0.3197   0.3197
     0.7146   0.7146   0.7167   0.7167   3.6907   3.6907   5.4640   5.4640
     5.8368   5.8368

          k =-0.0000 0.2855 0.0000 (  2253 PWs)   bands (ev):

  -118.3453-118.3453 -72.5155 -72.5154 -72.5151 -72.5151 -72.5151 -72.5151
    -6.1671  -5.4458   0.2320   0.3050   0.3116   0.3890   0.4141   0.6284
     0.6607   0.6783   0.7608   0.9868   1.8553   3.5970   4.3015   4.8962
     5.9294   6.0306

          k =-0.0000 0.2855 0.1523 (  2258 PWs)   bands (ev):

  -118.3453-118.3453 -72.5155 -72.5154 -72.5151 -72.5151 -72.5151 -72.5151
    -6.0702  -5.5608   0.2256   0.2969   0.3186   0.3772   0.3957   0.5138
     0.6695   0.6904   0.7484   0.8197   2.4031   3.7715   4.0752   5.0446
     5.7545   5.8412

          k =-0.0000 0.2855-0.3046 (  2266 PWs)   bands (ev):

  -118.3453-118.3453 -72.5154 -72.5154 -72.5151 -72.5151 -72.5151 -72.5151
    -5.8246  -5.8246   0.2436   0.2436   0.3548   0.3548   0.3823   0.3823
     0.7192   0.7192   0.7310   0.7310   3.1724   3.1724   4.9006   4.9006
     5.4231   5.4231

          k =-0.0000 0.4283 0.0000 (  2264 PWs)   bands (ev):

  -118.3453-118.3453 -72.5155 -72.5154 -72.5152 -72.5151 -72.5151 -72.5151
    -5.8351  -5.3470   0.2550   0.3400   0.3767   0.4920   0.5103   0.5810
     0.6802   0.7073   0.7724   1.0443   1.8770   2.8955   3.3305   4.4719
     5.3182   5.7252

          k =-0.0000 0.4283 0.1523 (  2261 PWs)   bands (ev):

  -118.3453-118.3453 -72.5155 -72.5154 -72.5152 -72.5151 -72.5151 -72.5151
    -5.7639  -5.4179   0.2433   0.3352   0.3611   0.4692   0.4991   0.5339
     0.7081   0.7140   0.7589   0.9240   1.9349   2.7198   3.8209   4.6355
     5.4377   5.5141

          k =-0.0000 0.4283-0.3046 (  2266 PWs)   bands (ev):

  -118.3453-118.3453 -72.5154 -72.5154 -72.5152 -72.5152 -72.5151 -72.5151
    -5.5908  -5.5908   0.2553   0.2553   0.4141   0.4141   0.4902   0.4902
     0.7333   0.7333   0.7892   0.7892   2.2450   2.2450   4.9163   4.9163
     5.0521   5.0521

          k = 0.0000-0.5710-0.0000 (  2272 PWs)   bands (ev):

  -118.3453-118.3453 -72.5155 -72.5154 -72.5152 -72.5151 -72.5151 -72.5151
    -5.6534  -5.3383   0.2636   0.3507   0.4798   0.5118   0.5243   0.5947
     0.7270   0.7787   0.8531   0.8609   1.7797   2.4455   3.3785   4.3066
     4.9323   5.6027

          k = 0.0000-0.5710 0.1523 (  2258 PWs)   bands (ev):

  -118.3453-118.3453 -72.5155 -72.5154 -72.5152 -72.5151 -72.5151 -72.5151
    -5.6031  -5.3793   0.2504   0.3726   0.3752   0.4993   0.5218   0.5998
     0.7307   0.7651   0.8731   0.8977   1.6257   2.1463   4.0022   4.4763
     5.2015   5.3843

          k = 0.0000-0.5710-0.3046 (  2264 PWs)   bands (ev):

  -118.3453-118.3453 -72.5154 -72.5154 -72.5152 -72.5152 -72.5151 -72.5151
    -5.4865  -5.4865   0.2622   0.2622   0.4367   0.4367   0.5582   0.5582
     0.7434   0.7434   0.9022   0.9022   1.7294   1.7294   4.9070   4.9070
     4.9857   4.9857

          k = 0.1236 0.2141 0.0000 (  2249 PWs)   bands (ev):

  -118.3453-118.3453 -72.5155 -72.5154 -72.5151 -72.5151 -72.5151 -72.5151
    -6.2509  -5.4816   0.2390   0.2835   0.3114   0.3500   0.3980   0.6421
     0.6603   0.6739   0.7574   0.9743   1.7666   4.0408   4.5126   5.0448
     6.0011   6.0806

          k = 0.1236 0.2141 0.1523 (  2259 PWs)   bands (ev):

  -118.3453-118.3453 -72.5155 -72.5154 -72.5151 -72.5151 -72.5151 -72.5151
    -6.1490  -5.6063   0.2327   0.2901   0.3118   0.3320   0.3817   0.5068
     0.6682   0.6874   0.7460   0.8027   2.4230   4.2037   4.2919   5.0622
     5.8143   5.8659

          k = 0.1236 0.2141-0.3046 (  2264 PWs)   bands (ev):

  -118.3453-118.3453 -72.5154 -72.5154 -72.5151 -72.5151 -72.5151 -72.5151
    -5.8890  -5.8890   0.2517   0.2517   0.3241   0.3241   0.3650   0.3650
     0.7146   0.7146   0.7281   0.7281   3.4032   3.4032   5.0241   5.0241
     5.4214   5.4214

          k = 0.1236 0.3569 0.0000 (  2262 PWs)   bands (ev):

  -118.3453-118.3453 -72.5155 -72.5154 -72.5151 -72.5151 -72.5151 -72.5151
    -5.9449  -5.3692   0.2736   0.3182   0.3613   0.4280   0.4832   0.6170
     0.6571   0.6815   0.7701   1.0340   1.9769   3.2290   3.5795   4.3062
     5.5384   5.5768

          k = 0.1236 0.3569 0.1523 (  2254 PWs)   bands (ev):

  -118.3453-118.3453 -72.5155 -72.5154 -72.5151 -72.5151 -72.5151 -72.5151
    -5.8637  -5.4562   0.2654   0.3184   0.3564   0.4167   0.4613   0.5231
     0.6710   0.7035   0.7596   0.8877   2.2194   3.1638   3.8640   4.4369
     5.3009   5.6294

          k = 0.1236 0.3569-0.3046 (  2252 PWs)   bands (ev):

  -118.3453-118.3453 -72.5154 -72.5154 -72.5151 -72.5151 -72.5151 -72.5151
    -5.6630  -5.6630   0.2756   0.2756   0.3901   0.3901   0.4290   0.4290
     0.7190   0.7190   0.7710   0.7710   2.6543   2.6543   4.7424   4.7424
     5.0518   5.0518

          k = 0.1236 0.4997 0.0000 (  2263 PWs)   bands (ev):

  -118.3453-118.3453 -72.5155 -72.5154 -72.5152 -72.5152 -72.5151 -72.5151
    -5.6621  -5.3338   0.2802   0.3522   0.4735   0.5142   0.5627   0.5814
     0.6995   0.7115   0.7981   1.0143   1.8365   2.6133   3.3720   3.9740
     4.9812   5.2493

          k = 0.1236 0.4997 0.1523 (  2267 PWs)   bands (ev):

  -118.3453-118.3453 -72.5155 -72.5154 -72.5152 -72.5152 -72.5151 -72.5151
    -5.6102  -5.3770   0.2775   0.3623   0.4027   0.4943   0.5353   0.5658
     0.7131   0.7248   0.8135   0.9856   1.7422   2.3322   3.8219   4.2993
     4.9644   5.2927

          k = 0.1236 0.4997-0.3046 (  2258 PWs)   bands (ev):

  -118.3453-118.3453 -72.5154 -72.5154 -72.5152 -72.5152 -72.5151 -72.5151
    -5.4893  -5.4893   0.2932   0.2932   0.4313   0.4313   0.5338   0.5338
     0.7244   0.7244   0.8884   0.8884   1.9108   1.9108   4.4160   4.4160
     5.1296   5.1296

          k = 0.2473 0.4283 0.0000 (  2261 PWs)   bands (ev):

  -118.3453-118.3453 -72.5155 -72.5154 -72.5151 -72.5151 -72.5151 -72.5151
    -5.6705  -5.3295   0.2894   0.3810   0.4690   0.4938   0.5505   0.6338
     0.6544   0.6717   0.7961   1.0801   1.9518   2.7767   3.4253   3.5969
     4.8750   5.0471

          k = 0.2473 0.4283 0.1523 (  2252 PWs)   bands (ev):

  -118.3453-118.3453 -72.5155 -72.5154 -72.5151 -72.5151 -72.5151 -72.5151
    -5.6171  -5.3749   0.3122   0.3554   0.4480   0.4697   0.5167   0.5552
     0.6788   0.7054   0.8067   1.0083   1.9244   2.5300   3.5583   4.1820
     4.6148   5.3225

          k = 0.2473 0.4283-0.3046 (  2250 PWs)   bands (ev):

  -118.3453-118.3453 -72.5154 -72.5154 -72.5151 -72.5151 -72.5151 -72.5151
    -5.4920  -5.4920   0.3332   0.3332   0.4320   0.4320   0.4906   0.4906
     0.7091   0.7091   0.8815   0.8815   2.1258   2.1258   4.0252   4.0252
     5.1563   5.1563

          k = 0.2473 0.5710 0.0000 (  2249 PWs)   bands (ev):

  -118.3453-118.3453 -72.5154 -72.5154 -72.5151 -72.5151 -72.5151 -72.5151
    -5.5007  -5.3644   0.2829   0.4126   0.4880   0.5540   0.6061   0.6454
     0.6845   0.7004   0.8796   0.9574   2.0557   2.4240   2.9584   4.0146
     4.5575   4.6301

          k = 0.2473 0.5710 0.1523 (  2269 PWs)   bands (ev):

  -118.3453-118.3453 -72.5155 -72.5154 -72.5152 -72.5152 -72.5151 -72.5151
    -5.4738  -5.3769   0.3128   0.3918   0.4372   0.5163   0.5853   0.6023
     0.6874   0.6952   0.9222   0.9965   1.8732   2.1508   3.1699   4.3018
     4.5509   5.0102

          k = 0.2473 0.5710-0.3046 (  2258 PWs)   bands (ev):

  -118.3453-118.3453 -72.5155 -72.5155 -72.5151 -72.5151 -72.5151 -72.5151
    -5.4182  -5.4182   0.3588   0.3588   0.4231   0.4231   0.5753   0.5753
     0.6881   0.6881   0.9946   0.9946   1.8416   1.8416   3.6998   3.6998
     5.2364   5.2364

     highest occupied level (ev):     6.4768

!    total energy              =    -971.54003501 Ry
     estimated scf accuracy    <       0.00000007 Ry

     The total energy is the sum of the following terms:
     one-electron contribution =    -915.04951461 Ry
     hartree contribution      =     470.91524992 Ry
     xc contribution           =    -101.37691184 Ry
     ewald contribution        =    -426.02885848 Ry

     convergence has been achieved in  18 iterations

     Forces acting on atoms (cartesian axes, Ry/au):

     atom    1 type  1   force =    -0.00000000    0.00000000    0.00408544
     atom    2 type  1   force =     0.00000000   -0.00000000    0.00408544
     atom    3 type  2   force =     0.00000000    0.00000000   -0.00408544
     atom    4 type  2   force =     0.00000000   -0.00000000   -0.00408544

     Total force =     0.008171     Total SCF correction =     0.000015


     Computing stress (Cartesian axis) and pressure

          total   stress  (Ry/bohr**3)                   (kbar)     P=        7.14
   0.00004262  -0.00000000  -0.00000000            6.27       -0.00       -0.00
  -0.00000000   0.00004262  -0.00000000           -0.00        6.27       -0.00
  -0.00000000  -0.00000000   0.00006042           -0.00       -0.00        8.89

     Energy error            =      9.9E-04
     Gradient error          =      4.1E-03
     Cell gradient error     =      6.0E-05


     number of scf cycles    =   3
     number of bfgs steps    =   2

     enthalpy old            =    -971.5390472704 Ry
     enthalpy new            =    -971.5400350067 Ry

     CASE: enthalpy_new < enthalpy_old

     new trust radius        =       0.0246198747 bohr
     new conv_thr            =       0.0000000409 Ry

     new unit-cell volume =    550.79802 a.u.^3 (    81.61985 Ang^3 )
     density =      3.96500 g/cm^3

CELL_PARAMETERS (alat=  7.20174626)
   1.016396172   0.000000000   0.000000000
  -0.508198086   0.880224905   0.000000000
  -0.000000000  -0.000000000   1.648246825

ATOMIC_POSITIONS (crystal)
Zn            0.3333333333        0.6666666667        0.0043844748
Zn            0.6666666667        0.3333333333        0.5043844748
S             0.3333333333        0.6666666667        0.3806155252
S             0.6666666667        0.3333333333        0.8806155252



     Writing output data file ./zns.save/
     NEW-OLD atomic charge density approx. for the potential
     extrapolated charge   52.74857, renormalised to   52.00000

     total cpu time spent up to now is      176.8 secs

     Self-consistent Calculation

     iteration #  1     ecut=    40.00 Ry     beta= 0.70
     Davidson diagonalization with overlap
     ethr =  1.00E-06,  avg # of iterations =  9.2

     total cpu time spent up to now is      183.9 secs

     total energy              =    -970.42579408 Ry
     estimated scf accuracy    <       0.93915335 Ry

     iteration #  2     ecut=    40.00 Ry     beta= 0.70
     Davidson diagonalization with overlap
     ethr =  1.81E-03,  avg # of iterations =  3.0

     total cpu time spent up to now is      187.6 secs

     total energy              =    -971.37050907 Ry
     estimated scf accuracy    <       3.89612508 Ry

     iteration #  3     ecut=    40.00 Ry     beta= 0.70
     Davidson diagonalization with overlap
     ethr =  1.81E-03,  avg # of iterations =  2.0

     total cpu time spent up to now is      190.8 secs

     total energy              =    -971.55243450 Ry
     estimated scf accuracy    <       0.58845685 Ry

     iteration #  4     ecut=    40.00 Ry     beta= 0.70
     Davidson diagonalization with overlap
     ethr =  1.13E-03,  avg # of iterations =  2.0

     total cpu time spent up to now is      193.4 secs

     total energy              =    -971.57279706 Ry
     estimated scf accuracy    <       0.17857358 Ry

     iteration #  5     ecut=    40.00 Ry     beta= 0.70
     Davidson diagonalization with overlap
     ethr =  3.43E-04,  avg # of iterations =  1.0

     total cpu time spent up to now is      195.7 secs

     total energy              =    -971.54160845 Ry
     estimated scf accuracy    <       0.13368449 Ry

     iteration #  6     ecut=    40.00 Ry     beta= 0.70
     Davidson diagonalization with overlap
     ethr =  2.57E-04,  avg # of iterations =  1.9

     total cpu time spent up to now is      198.1 secs

     total energy              =    -971.53770666 Ry
     estimated scf accuracy    <       0.03872386 Ry

     iteration #  7     ecut=    40.00 Ry     beta= 0.70
     Davidson diagonalization with overlap
     ethr =  7.45E-05,  avg # of iterations =  2.0

     total cpu time spent up to now is      200.9 secs

     total energy              =    -971.53769870 Ry
     estimated scf accuracy    <       0.00821856 Ry

     iteration #  8     ecut=    40.00 Ry     beta= 0.70
     Davidson diagonalization with overlap
     ethr =  1.58E-05,  avg # of iterations =  2.7

     total cpu time spent up to now is      203.9 secs

     total energy              =    -971.54001183 Ry
     estimated scf accuracy    <       0.00005108 Ry

     iteration #  9     ecut=    40.00 Ry     beta= 0.70
     Davidson diagonalization with overlap
     ethr =  9.82E-08,  avg # of iterations =  5.6

     total cpu time spent up to now is      208.2 secs

     total energy              =    -971.54001068 Ry
     estimated scf accuracy    <       0.00018568 Ry

     iteration # 10     ecut=    40.00 Ry     beta= 0.70
     Davidson diagonalization with overlap
     ethr =  9.82E-08,  avg # of iterations =  3.0

     total cpu time spent up to now is      211.8 secs

     total energy              =    -971.54004439 Ry
     estimated scf accuracy    <       0.00004015 Ry

     iteration # 11     ecut=    40.00 Ry     beta= 0.70
     Davidson diagonalization with overlap
     ethr =  7.72E-08,  avg # of iterations =  3.1

     total cpu time spent up to now is      215.4 secs

     total energy              =    -971.54008608 Ry
     estimated scf accuracy    <       0.00017672 Ry

     iteration # 12     ecut=    40.00 Ry     beta= 0.70
     Davidson diagonalization with overlap
     ethr =  7.72E-08,  avg # of iterations =  1.0

     total cpu time spent up to now is      217.8 secs

     total energy              =    -971.54005300 Ry
     estimated scf accuracy    <       0.00012097 Ry

     iteration # 13     ecut=    40.00 Ry     beta= 0.70
     Davidson diagonalization with overlap
     ethr =  7.72E-08,  avg # of iterations =  2.0

     total cpu time spent up to now is      220.8 secs

     total energy              =    -971.54004236 Ry
     estimated scf accuracy    <       0.00002632 Ry

     iteration # 14     ecut=    40.00 Ry     beta= 0.70
     Davidson diagonalization with overlap
     ethr =  5.06E-08,  avg # of iterations =  3.0

     total cpu time spent up to now is      224.6 secs

     total energy              =    -971.54004706 Ry
     estimated scf accuracy    <       0.00003059 Ry

     iteration # 15     ecut=    40.00 Ry     beta= 0.70
     Davidson diagonalization with overlap
     ethr =  5.06E-08,  avg # of iterations =  2.3

     total cpu time spent up to now is      227.6 secs

     total energy              =    -971.54005648 Ry
     estimated scf accuracy    <       0.00000163 Ry

     iteration # 16     ecut=    40.00 Ry     beta= 0.70
     Davidson diagonalization with overlap
     ethr =  3.13E-09,  avg # of iterations =  1.4

     total cpu time spent up to now is      230.2 secs

     total energy              =    -971.54005623 Ry
     estimated scf accuracy    <       0.00000087 Ry

     iteration # 17     ecut=    40.00 Ry     beta= 0.70
     Davidson diagonalization with overlap
     ethr =  1.67E-09,  avg # of iterations =  2.0

     total cpu time spent up to now is      232.9 secs

     total energy              =    -971.54005631 Ry
     estimated scf accuracy    <       0.00000009 Ry

     iteration # 18     ecut=    40.00 Ry     beta= 0.70
     Davidson diagonalization with overlap
     ethr =  1.72E-10,  avg # of iterations =  2.1

     total cpu time spent up to now is      235.7 secs

     End of self-consistent calculation

          k = 0.0000 0.0000 0.0000 (  2273 PWs)   bands (ev):

  -118.5069-118.5069 -72.6771 -72.6771 -72.6770 -72.6770 -72.6769 -72.6768
    -6.6353  -5.7421   0.0966   0.1040   0.1040   0.1809   0.1809   0.5120
     0.5120   0.5848   0.5848   0.7438   1.2247   5.4253   5.4253   6.2638
     6.2888   6.2888

          k =-0.0000-0.0000 0.1517 (  2262 PWs)   bands (ev):

  -118.5069-118.5069 -72.6771 -72.6771 -72.6770 -72.6770 -72.6768 -72.6767
    -6.5213  -5.8931   0.0922   0.1116   0.1116   0.1658   0.1658   0.3439
     0.5255   0.5255   0.5771   0.5771   2.1038   5.1918   5.5427   5.5427
     6.1521   6.1521

          k = 0.0000 0.0000-0.3034 (  2256 PWs)   bands (ev):

  -118.5069-118.5069 -72.6770 -72.6770 -72.6770 -72.6770 -72.6768 -72.6768
    -6.2254  -6.2254   0.1294   0.1294   0.1350   0.1350   0.1350   0.1350
     0.5541   0.5541   0.5541   0.5541   3.5647   3.5647   5.8379   5.8379
     5.8379   5.8379

          k =-0.0000 0.1420 0.0000 (  2261 PWs)   bands (ev):

  -118.5069-118.5069 -72.6771 -72.6771 -72.6771 -72.6770 -72.6769 -72.6768
    -6.5378  -5.6900   0.0955   0.1202   0.1232   0.1931   0.2087   0.4999
     0.5114   0.5438   0.5891   0.7721   1.3667   4.6887   5.2012   5.4370
     6.1302   6.1673

          k =-0.0000 0.1420 0.1517 (  2270 PWs)   bands (ev):

  -118.5069-118.5069 -72.6771 -72.6771 -72.6771 -72.6771 -72.6768 -72.6767
    -6.4283  -5.8314   0.0875   0.1291   0.1324   0.1754   0.1926   0.3455
     0.5185   0.5249   0.5799   0.5980   2.1719   4.7583   4.8975   5.3300
     5.8385   6.0105

          k =-0.0000 0.1420-0.3034 (  2276 PWs)   bands (ev):

  -118.5069-118.5069 -72.6771 -72.6771 -72.6771 -72.6771 -72.6768 -72.6768
    -6.1456  -6.1456   0.1113   0.1113   0.1591   0.1591   0.1687   0.1687
     0.5545   0.5545   0.5560   0.5560   3.4998   3.4998   5.2939   5.2939
     5.6564   5.6564

          k =-0.0000 0.2840 0.0000 (  2253 PWs)   bands (ev):

  -118.5069-118.5069 -72.6771 -72.6771 -72.6771 -72.6770 -72.6768 -72.6768
    -6.2769  -5.5702   0.1000   0.1583   0.1640   0.2496   0.2787   0.4712
     0.5086   0.5213   0.5989   0.8146   1.6897   3.4613   4.1460   4.7323
     5.7222   5.8689

          k =-0.0000 0.2840 0.1517 (  2258 PWs)   bands (ev):

  -118.5069-118.5069 -72.6771 -72.6771 -72.6771 -72.6771 -72.6768 -72.6768
    -6.1819  -5.6828   0.0905   0.1525   0.1785   0.2359   0.2595   0.3603
     0.5121   0.5326   0.5872   0.6530   2.2278   3.6157   3.9276   4.8807
     5.5619   5.6789

          k =-0.0000 0.2840-0.3034 (  2266 PWs)   bands (ev):

  -118.5069-118.5069 -72.6771 -72.6771 -72.6771 -72.6771 -72.6768 -72.6768
    -5.9411  -5.9411   0.1076   0.1076   0.2166   0.2166   0.2324   0.2324
     0.5597   0.5597   0.5694   0.5694   2.9990   2.9990   4.7374   4.7374
     5.2597   5.2597

          k =-0.0000 0.4260 0.0000 (  2264 PWs)   bands (ev):

  -118.5069-118.5069 -72.6772 -72.6771 -72.6771 -72.6771 -72.6768 -72.6768
    -5.9559  -5.4785   0.1187   0.1940   0.2258   0.3515   0.3662   0.4223
     0.5247   0.5505   0.6105   0.8739   1.7398   2.7630   3.1922   4.3223
     5.1195   5.5794

          k =-0.0000 0.4260 0.1517 (  2261 PWs)   bands (ev):

  -118.5069-118.5069 -72.6772 -72.6771 -72.6771 -72.6771 -72.6768 -72.6768
    -5.8862  -5.5478   0.1058   0.1914   0.2158   0.3279   0.3506   0.3785
     0.5520   0.5565   0.5978   0.7587   1.7964   2.5864   3.6651   4.4861
     5.2450   5.3671

          k =-0.0000 0.4260-0.3034 (  2266 PWs)   bands (ev):

  -118.5069-118.5069 -72.6772 -72.6772 -72.6771 -72.6771 -72.6768 -72.6768
    -5.7170  -5.7170   0.1164   0.1164   0.2707   0.2707   0.3395   0.3395
     0.5741   0.5741   0.6287   0.6287   2.1071   2.1071   4.7392   4.7392
     4.9035   4.9035

          k = 0.0000-0.5680-0.0000 (  2272 PWs)   bands (ev):

  -118.5069-118.5069 -72.6772 -72.6771 -72.6771 -72.6771 -72.6768 -72.6768
    -5.7804  -5.4719   0.1243   0.2028   0.3330   0.3433   0.3814   0.4433
     0.5697   0.6167   0.7001   0.7020   1.6516   2.3427   3.2153   4.1628
     4.7415   5.4630

          k = 0.0000-0.5680 0.1517 (  2258 PWs)   bands (ev):

  -118.5069-118.5069 -72.6772 -72.6772 -72.6771 -72.6771 -72.6768 -72.6768
    -5.7312  -5.5121   0.1106   0.2279   0.2286   0.3556   0.3573   0.4480
     0.5730   0.6039   0.7129   0.7384   1.5033   2.0375   3.8322   4.3326
     5.0130   5.2433

          k = 0.0000-0.5680-0.3034 (  2264 PWs)   bands (ev):

  -118.5069-118.5069 -72.6772 -72.6772 -72.6771 -72.6771 -72.6768 -72.6768
    -5.6172  -5.6172   0.1216   0.1216   0.2910   0.2910   0.4012   0.4012
     0.5841   0.5841   0.7394   0.7394   1.6145   1.6145   4.7642   4.7642
     4.8029   4.8029

          k = 0.1230 0.2130 0.0000 (  2249 PWs)   bands (ev):

  -118.5069-118.5069 -72.6771 -72.6771 -72.6771 -72.6771 -72.6768 -72.6768
    -6.3580  -5.6039   0.1070   0.1442   0.1519   0.2189   0.2625   0.4852
     0.5064   0.5180   0.5956   0.8014   1.6023   3.8974   4.3457   4.8808
     5.8382   5.8716

          k = 0.1230 0.2130 0.1517 (  2259 PWs)   bands (ev):

  -118.5069-118.5069 -72.6771 -72.6771 -72.6771 -72.6771 -72.6768 -72.6768
    -6.2580  -5.7260   0.0961   0.1523   0.1598   0.2013   0.2448   0.3533
     0.5096   0.5298   0.5848   0.6362   2.2458   4.0287   4.1466   4.8971
     5.6510   5.6752

          k = 0.1230 0.2130-0.3034 (  2264 PWs)   bands (ev):

  -118.5069-118.5069 -72.6771 -72.6771 -72.6771 -72.6771 -72.6768 -72.6768
    -6.0030  -6.0030   0.1157   0.1157   0.1842   0.1842   0.2177   0.2177
     0.5546   0.5546   0.5670   0.5670   3.2195   3.2195   4.8629   4.8629
     5.2574   5.2574

          k = 0.1230 0.3550 0.0000 (  2262 PWs)   bands (ev):

  -118.5069-118.5069 -72.6771 -72.6771 -72.6771 -72.6771 -72.6768 -72.6768
    -6.0619  -5.4987   0.1366   0.1761   0.2071   0.2881   0.3427   0.4606
     0.5036   0.5242   0.6085   0.8634   1.8199   3.0949   3.4376   4.1632
     5.3742   5.3962

          k = 0.1230 0.3550 0.1517 (  2254 PWs)   bands (ev):

  -118.5069-118.5069 -72.6771 -72.6771 -72.6771 -72.6771 -72.6768 -72.6768
    -5.9825  -5.5838   0.1270   0.1740   0.2115   0.2764   0.3192   0.3708
     0.5131   0.5461   0.5990   0.7219   2.0612   3.0146   3.7195   4.2922
     5.1558   5.4377

          k = 0.1230 0.3550-0.3034 (  2252 PWs)   bands (ev):

  -118.5069-118.5069 -72.6771 -72.6771 -72.6771 -72.6771 -72.6768 -72.6768
    -5.7860  -5.7860   0.1357   0.1357   0.2492   0.2492   0.2813   0.2813
     0.5590   0.5590   0.6099   0.6099   2.4999   2.4999   4.5919   4.5919
     4.8866   4.8866

          k = 0.1230 0.4970 0.0000 (  2263 PWs)   bands (ev):

  -118.5069-118.5069 -72.6772 -72.6772 -72.6771 -72.6771 -72.6768 -72.6768
    -5.7887  -5.4675   0.1376   0.2045   0.3159   0.3691   0.4031   0.4383
     0.5421   0.5563   0.6387   0.8474   1.7149   2.4956   3.2191   3.8362
     4.7906   5.1184

          k = 0.1230 0.4970 0.1517 (  2267 PWs)   bands (ev):

  -118.5069-118.5069 -72.6772 -72.6772 -72.6771 -72.6771 -72.6768 -72.6768
    -5.7379  -5.5099   0.1354   0.2134   0.2543   0.3496   0.3764   0.4197
     0.5553   0.5663   0.6553   0.8186   1.6207   2.2110   3.6739   4.1478
     4.8270   5.1094

          k = 0.1230 0.4970-0.3034 (  2258 PWs)   bands (ev):

  -118.5069-118.5069 -72.6772 -72.6772 -72.6771 -72.6771 -72.6768 -72.6768
    -5.6198  -5.6198   0.1494   0.1494   0.2846   0.2846   0.3828   0.3828
     0.5656   0.5656   0.7265   0.7265   1.7870   1.7870   4.2794   4.2794
     4.9516   4.9516

          k = 0.2460 0.4260 0.0000 (  2261 PWs)   bands (ev):

  -118.5069-118.5069 -72.6772 -72.6772 -72.6771 -72.6771 -72.6768 -72.6767
    -5.7966  -5.4634   0.1429   0.2308   0.3204   0.3407   0.4067   0.4815
     0.4971   0.5166   0.6363   0.9078   1.8287   2.6444   3.3047   3.4452
     4.7568   4.8541

          k = 0.2460 0.4260 0.1517 (  2252 PWs)   bands (ev):

  -118.5069-118.5069 -72.6772 -72.6771 -72.6771 -72.6771 -72.6768 -72.6768
    -5.7444  -5.5079   0.1666   0.2036   0.2945   0.3243   0.3726   0.4092
     0.5201   0.5476   0.6479   0.8403   1.7960   2.3953   3.4368   4.0232
     4.4927   5.1322

          k = 0.2460 0.4260-0.3034 (  2250 PWs)   bands (ev):

  -118.5069-118.5069 -72.6771 -72.6771 -72.6771 -72.6771 -72.6768 -72.6768
    -5.6223  -5.6223   0.1846   0.1846   0.2812   0.2812   0.3507   0.3507
     0.5499   0.5499   0.7195   0.7195   1.9912   1.9912   3.9043   3.9043
     4.9760   4.9760

          k = 0.2460 0.5680 0.0000 (  2249 PWs)   bands (ev):

  -118.5069-118.5069 -72.6771 -72.6771 -72.6771 -72.6771 -72.6768 -72.6767
    -5.6321  -5.4988   0.1354   0.2606   0.3313   0.4068   0.4422   0.4902
     0.5301   0.5445   0.7231   0.7963   1.9378   2.3084   2.8448   3.8471
     4.3949   4.5015

          k = 0.2460 0.5680 0.1517 (  2269 PWs)   bands (ev):

  -118.5069-118.5069 -72.6772 -72.6772 -72.6771 -72.6771 -72.6768 -72.6768
    -5.6060  -5.5113   0.1657   0.2381   0.2801   0.3696   0.4294   0.4539
     0.5320   0.5377   0.7610   0.8304   1.7556   2.0322   3.0568   4.1921
     4.3776   4.8261

          k = 0.2460 0.5680-0.3034 (  2258 PWs)   bands (ev):

  -118.5069-118.5069 -72.6772 -72.6772 -72.6771 -72.6771 -72.6768 -72.6768
    -5.5517  -5.5517   0.2067   0.2067   0.2737   0.2737   0.4266   0.4266
     0.5321   0.5321   0.8270   0.8270   1.7235   1.7235   3.5878   3.5878
     5.0523   5.0523

     highest occupied level (ev):     6.2888

!    total energy              =    -971.54005630 Ry
     estimated scf accuracy    <       0.00000002 Ry

     The total energy is the sum of the following terms:
     one-electron contribution =    -918.55538496 Ry
     hartree contribution      =     472.35044073 Ry
     xc contribution           =    -101.35193643 Ry
     ewald contribution        =    -423.98317564 Ry

     convergence has been achieved in  18 iterations

     Forces acting on atoms (cartesian axes, Ry/au):

     atom    1 type  1   force =     0.00000000    0.00000000   -0.00023880
     atom    2 type  1   force =     0.00000000    0.00000000   -0.00023880
     atom    3 type  2   force =    -0.00000000   -0.00000000    0.00023880
     atom    4 type  2   force =    -0.00000000   -0.00000000    0.00023880

     Total force =     0.000478     Total SCF correction =     0.000008


     Computing stress (Cartesian axis) and pressure

          total   stress  (Ry/bohr**3)                   (kbar)     P=       -9.37
  -0.00008850   0.00000000  -0.00000000          -13.02        0.00       -0.00
   0.00000000  -0.00008850   0.00000000            0.00      -13.02        0.00
  -0.00000000   0.00000000  -0.00001404           -0.00        0.00       -2.07

     Energy error            =      2.1E-05
     Gradient error          =      2.4E-04
     Cell gradient error     =      8.8E-05


     number of scf cycles    =   4
     number of bfgs steps    =   3

     enthalpy old            =    -971.5400350067 Ry
     enthalpy new            =    -971.5400562973 Ry

     CASE: enthalpy_new < enthalpy_old

     new trust radius        =       0.0133661877 bohr
     new conv_thr            =       0.0000000100 Ry

     new unit-cell volume =    547.05406 a.u.^3 (    81.06505 Ang^3 )
     density =      3.99213 g/cm^3

CELL_PARAMETERS (alat=  7.20174626)
   1.013501866   0.000000000   0.000000000
  -0.506750933   0.877718363   0.000000000
  -0.000000000  -0.000000000   1.646406460

ATOMIC_POSITIONS (crystal)
Zn            0.3333333333        0.6666666667        0.0038671862
Zn            0.6666666667        0.3333333333        0.5038671862
S             0.3333333333        0.6666666667        0.3811328138
S             0.6666666667        0.3333333333        0.8811328138



     Writing output data file ./zns.save/
     NEW-OLD atomic charge density approx. for the potential
     extrapolated charge   51.64412, renormalised to   52.00000

     total cpu time spent up to now is      241.3 secs

     Self-consistent Calculation

     iteration #  1     ecut=    40.00 Ry     beta= 0.70
     Davidson diagonalization with overlap
     ethr =  1.00E-06,  avg # of iterations =  6.5

     total cpu time spent up to now is      246.8 secs

     total energy              =    -971.39856728 Ry
     estimated scf accuracy    <       0.11355937 Ry

     iteration #  2     ecut=    40.00 Ry     beta= 0.70
     Davidson diagonalization with overlap
     ethr =  2.18E-04,  avg # of iterations =  4.7

     total cpu time spent up to now is      250.8 secs

     total energy              =    -971.46832811 Ry
     estimated scf accuracy    <       0.82877330 Ry

     iteration #  3     ecut=    40.00 Ry     beta= 0.70
     Davidson diagonalization with overlap
     ethr =  2.18E-04,  avg # of iterations =  3.0

     total cpu time spent up to now is      254.2 secs

     total energy              =    -971.54185232 Ry
     estimated scf accuracy    <       0.05596442 Ry

     iteration #  4     ecut=    40.00 Ry     beta= 0.70
     Davidson diagonalization with overlap
     ethr =  1.08E-04,  avg # of iterations =  1.8

     total cpu time spent up to now is      256.7 secs

     total energy              =    -971.54166832 Ry
     estimated scf accuracy    <       0.01856585 Ry

     iteration #  5     ecut=    40.00 Ry     beta= 0.70
     Davidson diagonalization with overlap
     ethr =  3.57E-05,  avg # of iterations =  1.1

     total cpu time spent up to now is      259.1 secs

     total energy              =    -971.54215458 Ry
     estimated scf accuracy    <       0.00903781 Ry

     iteration #  6     ecut=    40.00 Ry     beta= 0.70
     Davidson diagonalization with overlap
     ethr =  1.74E-05,  avg # of iterations =  1.0

     total cpu time spent up to now is      261.4 secs

     total energy              =    -971.54119073 Ry
     estimated scf accuracy    <       0.00876722 Ry

     iteration #  7     ecut=    40.00 Ry     beta= 0.70
     Davidson diagonalization with overlap
     ethr =  1.69E-05,  avg # of iterations =  1.0

     total cpu time spent up to now is      263.7 secs

     total energy              =    -971.54154050 Ry
     estimated scf accuracy    <       0.00479070 Ry

     iteration #  8     ecut=    40.00 Ry     beta= 0.70
     Davidson diagonalization with overlap
     ethr =  9.21E-06,  avg # of iterations =  1.0

     total cpu time spent up to now is      266.0 secs

     total energy              =    -971.54093853 Ry
     estimated scf accuracy    <       0.00558672 Ry

     iteration #  9     ecut=    40.00 Ry     beta= 0.70
     Davidson diagonalization with overlap
     ethr =  9.21E-06,  avg # of iterations =  1.0

     total cpu time spent up to now is      268.3 secs

     total energy              =    -971.53993538 Ry
     estimated scf accuracy    <       0.00331168 Ry

     iteration # 10     ecut=    40.00 Ry     beta= 0.70
     Davidson diagonalization with overlap
     ethr =  6.37E-06,  avg # of iterations =  2.0

     total cpu time spent up to now is      271.0 secs

     total energy              =    -971.54012451 Ry
     estimated scf accuracy    <       0.00045133 Ry

     iteration # 11     ecut=    40.00 Ry     beta= 0.70
     Davidson diagonalization with overlap
     ethr =  8.68E-07,  avg # of iterations =  2.1

     total cpu time spent up to now is      273.9 secs

     total energy              =    -971.54018708 Ry
     estimated scf accuracy    <       0.00005609 Ry

     iteration # 12     ecut=    40.00 Ry     beta= 0.70
     Davidson diagonalization with overlap
     ethr =  1.08E-07,  avg # of iterations =  2.5

     total cpu time spent up to now is      276.8 secs

     total energy              =    -971.54020064 Ry
     estimated scf accuracy    <       0.00000179 Ry

     iteration # 13     ecut=    40.00 Ry     beta= 0.70
     Davidson diagonalization with overlap
     ethr =  3.45E-09,  avg # of iterations =  3.0

     total cpu time spent up to now is      280.1 secs

     total energy              =    -971.54020026 Ry
     estimated scf accuracy    <       0.00000542 Ry

     iteration # 14     ecut=    40.00 Ry     beta= 0.70
     Davidson diagonalization with overlap
     ethr =  3.45E-09,  avg # of iterations =  1.9

     total cpu time spent up to now is      282.6 secs

     total energy              =    -971.54019954 Ry
     estimated scf accuracy    <       0.00000236 Ry

     iteration # 15     ecut=    40.00 Ry     beta= 0.70
     Davidson diagonalization with overlap
     ethr =  3.45E-09,  avg # of iterations =  2.0

     total cpu time spent up to now is      285.3 secs

[...]
     Pseudo is Ultrasoft + core correction, Zval =  6.0
     Generated by new atomic code, or converted to UPF format
     Using radial grid of  907 points,  6 beta functions with: 
                l(1) =   0
                l(2) =   0
                l(3) =   1
                l(4) =   1
                l(5) =   2
                l(6) =   2
     Q(r) pseudized with  8 coefficients,  rinner =    1.300   1.300   1.300
                                                       1.300   1.300

     atomic species   valence    mass     pseudopotential
        Zn            20.00    65.38000     Zn( 1.00)
        S              6.00    32.06500     S ( 1.00)

     12 Sym. Ops. (no inversion) found ( 6 have fractional translation)



   Cartesian axes

     site n.     atom                  positions (alat units)
         1           Zn  tau(   1) = (  -0.0000000   0.5826751   0.0085573  )
         2           Zn  tau(   2) = (   0.5046115   0.2913376   0.8356621  )
         3           S   tau(   3) = (  -0.0000000   0.5826751   0.6283134  )
         4           S   tau(   4) = (   0.5046115   0.2913376   1.4554182  )

     number of k points=    30
                       cart. coord. in units 2pi/alat
        k(    1) = (   0.0000000   0.0000000   0.0000000), wk =   0.0078125
        k(    2) = (  -0.0000000  -0.0000000   0.1511296), wk =   0.0156250
        k(    3) = (   0.0000000   0.0000000  -0.3022592), wk =   0.0078125
        k(    4) = (  -0.0000000   0.1430185  -0.0000000), wk =   0.0468750
        k(    5) = (  -0.0000000   0.1430185   0.1511296), wk =   0.0937500
        k(    6) = (  -0.0000000   0.1430185  -0.3022592), wk =   0.0468750
        k(    7) = (  -0.0000000   0.2860370  -0.0000000), wk =   0.0468750
        k(    8) = (  -0.0000000   0.2860370   0.1511296), wk =   0.0937500
        k(    9) = (  -0.0000000   0.2860370  -0.3022592), wk =   0.0468750
        k(   10) = (  -0.0000000   0.4290556  -0.0000000), wk =   0.0468750
        k(   11) = (  -0.0000000   0.4290556   0.1511296), wk =   0.0937500
        k(   12) = (  -0.0000000   0.4290556  -0.3022592), wk =   0.0468750
        k(   13) = (   0.0000000  -0.5720741   0.0000000), wk =   0.0234375
        k(   14) = (   0.0000000  -0.5720741   0.1511296), wk =   0.0468750
        k(   15) = (   0.0000000  -0.5720741  -0.3022592), wk =   0.0234375
        k(   16) = (   0.1238577   0.2145278  -0.0000000), wk =   0.0468750
        k(   17) = (   0.1238577   0.2145278   0.1511296), wk =   0.0937500
        k(   18) = (   0.1238577   0.2145278  -0.3022592), wk =   0.0468750
        k(   19) = (   0.1238577   0.3575463  -0.0000000), wk =   0.0937500
        k(   20) = (   0.1238577   0.3575463   0.1511296), wk =   0.1875000
        k(   21) = (   0.1238577   0.3575463  -0.3022592), wk =   0.0937500
        k(   22) = (   0.1238577   0.5005648  -0.0000000), wk =   0.0937500
        k(   23) = (   0.1238577   0.5005648   0.1511296), wk =   0.1875000
        k(   24) = (   0.1238577   0.5005648  -0.3022592), wk =   0.0937500
        k(   25) = (   0.2477153   0.4290556  -0.0000000), wk =   0.0468750
        k(   26) = (   0.2477153   0.4290556   0.1511296), wk =   0.0937500
        k(   27) = (   0.2477153   0.4290556  -0.3022592), wk =   0.0468750
        k(   28) = (   0.2477153   0.5720741  -0.0000000), wk =   0.0468750
        k(   29) = (   0.2477153   0.5720741   0.1511296), wk =   0.0937500
        k(   30) = (   0.2477153   0.5720741  -0.3022592), wk =   0.0468750

     Dense  grid:    26045 G-vectors     FFT dimensions: (  36,  36,  54)

     Smooth grid:    18557 G-vectors     FFT dimensions: (  30,  30,  48)

     Estimated max dynamical RAM per process >     132.37 MB

     Initial potential from superposition of free atoms

     starting charge   51.99964, renormalised to   52.00000
     Starting wfcs are   34 randomized atomic wfcs

     total cpu time spent up to now is      946.3 secs

     Self-consistent Calculation

     iteration #  1     ecut=    40.00 Ry     beta= 0.70
     Davidson diagonalization with overlap
     ethr =  1.00E-06,  avg # of iterations =  8.9

     total cpu time spent up to now is      954.3 secs

     total energy              =    -971.45437578 Ry
     estimated scf accuracy    <       0.21004306 Ry

     iteration #  2     ecut=    40.00 Ry     beta= 0.70
     Davidson diagonalization with overlap
     ethr =  4.04E-04,  avg # of iterations =  2.8

     total cpu time spent up to now is      958.0 secs

     total energy              =    -971.50271610 Ry
     estimated scf accuracy    <       0.16761868 Ry

     iteration #  3     ecut=    40.00 Ry     beta= 0.70
     Davidson diagonalization with overlap
     ethr =  3.22E-04,  avg # of iterations =  2.0

     total cpu time spent up to now is      961.3 secs

     total energy              =    -971.53923537 Ry
     estimated scf accuracy    <       0.00473461 Ry

     iteration #  4     ecut=    40.00 Ry     beta= 0.70
     Davidson diagonalization with overlap
     ethr =  9.11E-06,  avg # of iterations =  2.7

     total cpu time spent up to now is      964.8 secs

     total energy              =    -971.54035117 Ry
     estimated scf accuracy    <       0.00025561 Ry

     iteration #  5     ecut=    40.00 Ry     beta= 0.70
     Davidson diagonalization with overlap
     ethr =  4.92E-07,  avg # of iterations =  2.4

     total cpu time spent up to now is      968.0 secs

     total energy              =    -971.54037056 Ry
     estimated scf accuracy    <       0.00002214 Ry

     iteration #  6     ecut=    40.00 Ry     beta= 0.70
     Davidson diagonalization with overlap
     ethr =  4.26E-08,  avg # of iterations =  2.4

     total cpu time spent up to now is      971.3 secs

     total energy              =    -971.54037474 Ry
     estimated scf accuracy    <       0.00000278 Ry

     iteration #  7     ecut=    40.00 Ry     beta= 0.70
     Davidson diagonalization with overlap
     ethr =  5.35E-09,  avg # of iterations =  3.1

     total cpu time spent up to now is      975.3 secs

     total energy              =    -971.54037584 Ry
     estimated scf accuracy    <       0.00000233 Ry

     iteration #  8     ecut=    40.00 Ry     beta= 0.70
     Davidson diagonalization with overlap
     ethr =  4.49E-09,  avg # of iterations =  2.0

     total cpu time spent up to now is      978.4 secs

     total energy              =    -971.54037631 Ry
     estimated scf accuracy    <       0.00000003 Ry

     iteration #  9     ecut=    40.00 Ry     beta= 0.70
     Davidson diagonalization with overlap
     ethr =  6.05E-11,  avg # of iterations =  5.5

     total cpu time spent up to now is      982.9 secs

     total energy              =    -971.54037633 Ry
     estimated scf accuracy    <       0.00000003 Ry

     iteration # 10     ecut=    40.00 Ry     beta= 0.70
     Davidson diagonalization with overlap
     ethr =  6.05E-11,  avg # of iterations =  2.0

     total cpu time spent up to now is      986.0 secs

     End of self-consistent calculation

          k = 0.0000 0.0000 0.0000 (  2333 PWs)   bands (ev):

  -118.3887-118.3886 -72.5589 -72.5589 -72.5588 -72.5588 -72.5584 -72.5583
    -6.5632  -5.6712   0.1973   0.2086   0.2086   0.2870   0.2870   0.6284
     0.6284   0.7008   0.7008   0.8516   1.2836   5.5900   5.5900   6.3749
     6.4469   6.4469

          k =-0.0000-0.0000 0.1511 (  2358 PWs)   bands (ev):

  -118.3887-118.3886 -72.5589 -72.5589 -72.5588 -72.5588 -72.5583 -72.5582
    -6.4497  -5.8224   0.1933   0.2166   0.2166   0.2719   0.2719   0.4424
     0.6417   0.6417   0.6930   0.6930   2.1752   5.2920   5.7064   5.7064
     6.3111   6.3111

          k = 0.0000 0.0000-0.3023 (  2364 PWs)   bands (ev):

  -118.3886-118.3886 -72.5589 -72.5589 -72.5589 -72.5589 -72.5583 -72.5583
    -6.1545  -6.1545   0.2303   0.2303   0.2407   0.2407   0.2407   0.2407
     0.6700   0.6700   0.6700   0.6700   3.6455   3.6455   5.9992   5.9992
     5.9992   5.9992

          k =-0.0000 0.1430-0.0000 (  2325 PWs)   bands (ev):

  -118.3887-118.3886 -72.5589 -72.5589 -72.5589 -72.5589 -72.5584 -72.5583
    -6.4628  -5.6158   0.1999   0.2207   0.2281   0.2991   0.3154   0.6157
     0.6280   0.6555   0.7052   0.8854   1.4282   4.8387   5.3614   5.5861
     6.2445   6.3213

          k =-0.0000 0.1430 0.1511 (  2337 PWs)   bands (ev):

  -118.3887-118.3886 -72.5589 -72.5589 -72.5589 -72.5589 -72.5583 -72.5583
    -6.3537  -5.7574   0.1898   0.2326   0.2377   0.2808   0.2993   0.4473
     0.6341   0.6413   0.6959   0.7130   2.2474   4.8919   5.0396   5.4893
     5.9549   6.1653

          k =-0.0000 0.1430-0.3023 (  2338 PWs)   bands (ev):

  -118.3886-118.3886 -72.5589 -72.5589 -72.5589 -72.5589 -72.5583 -72.5583
    -6.0715  -6.0715   0.2130   0.2130   0.2653   0.2653   0.2742   0.2742
     0.6706   0.6706   0.6714   0.6714   3.5941   3.5941   5.4269   5.4269
     5.8135   5.8135

          k =-0.0000 0.2860-0.0000 (  2343 PWs)   bands (ev):

  -118.3887-118.3886 -72.5589 -72.5589 -72.5589 -72.5589 -72.5583 -72.5583
    -6.1941  -5.4872   0.2022   0.2588   0.2694   0.3569   0.3870   0.5853
     0.6204   0.6385   0.7153   0.9298   1.7635   3.5779   4.2757   4.8835
     5.8383   6.0141

          k =-0.0000 0.2860 0.1511 (  2330 PWs)   bands (ev):

  -118.3886-118.3886 -72.5589 -72.5589 -72.5589 -72.5589 -72.5583 -72.5583
    -6.0993  -5.6002   0.1914   0.2544   0.2845   0.3430   0.3675   0.4678
     0.6264   0.6496   0.7037   0.7671   2.3225   3.7351   4.0434   5.0312
     5.6576   5.8250

          k =-0.0000 0.2860-0.3023 (  2330 PWs)   bands (ev):

  -118.3886-118.3886 -72.5589 -72.5589 -72.5589 -72.5589 -72.5583 -72.5583
    -5.8588  -5.8588   0.2080   0.2080   0.3237   0.3237   0.3408   0.3408
     0.6763   0.6763   0.6837   0.6837   3.1214   3.1214   4.8204   4.8204
     5.4081   5.4081

          k =-0.0000 0.4291-0.0000 (  2314 PWs)   bands (ev):

  -118.3886-118.3886 -72.5589 -72.5589 -72.5589 -72.5589 -72.5583 -72.5583
    -5.8635  -5.3856   0.2211   0.2995   0.3231   0.4612   0.4782   0.5320
     0.6399   0.6690   0.7278   0.9964   1.8294   2.8526   3.2935   4.4658
     5.2292   5.7171

          k =-0.0000 0.4291 0.1511 (  2321 PWs)   bands (ev):

  -118.3886-118.3886 -72.5589 -72.5589 -72.5589 -72.5589 -72.5583 -72.5583
    -5.7941  -5.4554   0.2072   0.2907   0.3219   0.4369   0.4614   0.4886
     0.6670   0.6750   0.7153   0.8765   1.8993   2.6944   3.7453   4.6289
     5.3396   5.5059

          k =-0.0000 0.4291-0.3023 (  2326 PWs)   bands (ev):

  -118.3886-118.3886 -72.5589 -72.5589 -72.5589 -72.5589 -72.5583 -72.5583
    -5.6250  -5.6250   0.2172   0.2172   0.3782   0.3782   0.4501   0.4501
     0.6921   0.6921   0.7440   0.7440   2.2185   2.2185   4.8160   4.8160
     5.0444   5.0444

          k = 0.0000-0.5721 0.0000 (  2300 PWs)   bands (ev):

  -118.3886-118.3886 -72.5589 -72.5589 -72.5589 -72.5589 -72.5583 -72.5583
    -5.6831  -5.3749   0.2273   0.3083   0.4333   0.4474   0.4914   0.5559
     0.6890   0.7346   0.8226   0.8239   1.7386   2.4331   3.3044   4.3033
     4.8428   5.5979

          k = 0.0000-0.5721 0.1511 (  2338 PWs)   bands (ev):

  -118.3886-118.3886 -72.5589 -72.5589 -72.5589 -72.5589 -72.5583 -72.5583
    -5.6343  -5.4154   0.2129   0.3294   0.3339   0.4639   0.4648   0.5619
     0.6922   0.7222   0.8346   0.8606   1.5941   2.1325   3.9153   4.4725
     5.1033   5.3792

          k = 0.0000-0.5721-0.3023 (  2320 PWs)   bands (ev):

  -118.3886-118.3886 -72.5589 -72.5589 -72.5589 -72.5589 -72.5583 -72.5583
    -5.5207  -5.5207   0.2232   0.2232   0.3985   0.3985   0.5126   0.5126
     0.7030   0.7030   0.8613   0.8613   1.7101   1.7101   4.8829   4.8829
     4.9023   4.9023

          k = 0.1239 0.2145-0.0000 (  2317 PWs)   bands (ev):

  -118.3886-118.3886 -72.5589 -72.5589 -72.5589 -72.5589 -72.5583 -72.5583
    -6.2777  -5.5236   0.2107   0.2486   0.2530   0.3252   0.3703   0.6002
     0.6201   0.6321   0.7118   0.9162   1.6714   4.0279   4.4825   5.0295
     5.9815   5.9884

          k = 0.1239 0.2145 0.1511 (  2340 PWs)   bands (ev):

  -118.3886-118.3886 -72.5589 -72.5589 -72.5589 -72.5589 -72.5583 -72.5583
    -6.1780  -5.6460   0.1979   0.2565   0.2642   0.3070   0.3524   0.4592
     0.6243   0.6463   0.7011   0.7506   2.3329   4.1646   4.2665   5.0449
     5.7742   5.7951

          k = 0.1239 0.2145-0.3023 (  2340 PWs)   bands (ev):

  -118.3886-118.3886 -72.5589 -72.5589 -72.5589 -72.5589 -72.5583 -72.5583
    -5.9233  -5.9233   0.2165   0.2165   0.2910   0.2910   0.3253   0.3253
     0.6704   0.6704   0.6822   0.6822   3.3374   3.3374   4.9593   4.9593
     5.4026   5.4026

          k = 0.1239 0.3575-0.0000 (  2335 PWs)   bands (ev):

  -118.3886-118.3886 -72.5589 -72.5589 -72.5589 -72.5589 -72.5583 -72.5583
    -5.9728  -5.4089   0.2394   0.2823   0.3058   0.3976   0.4516   0.5733
     0.6170   0.6409   0.7257   0.9819   1.9062   3.1944   3.5536   4.2977
     5.4899   5.5263

          k = 0.1239 0.3575 0.1511 (  2325 PWs)   bands (ev):

  -118.3886-118.3886 -72.5589 -72.5589 -72.5589 -72.5589 -72.5583 -72.5583
    -5.8935  -5.4944   0.2290   0.2759   0.3167   0.3858   0.4277   0.4799
     0.6268   0.6633   0.7165   0.8375   2.1676   3.1340   3.8063   4.4256
     5.2844   5.5372

          k = 0.1239 0.3575-0.3023 (  2334 PWs)   bands (ev):

  -118.3886-118.3886 -72.5589 -72.5589 -72.5589 -72.5589 -72.5583 -72.5583
    -5.6972  -5.6972   0.2369   0.2369   0.3575   0.3575   0.3899   0.3899
     0.6751   0.6751   0.7257   0.7257   2.6207   2.6207   4.7024   4.7024
     4.9855   4.9855

          k = 0.1239 0.5006-0.0000 (  2325 PWs)   bands (ev):

  -118.3886-118.3886 -72.5589 -72.5589 -72.5589 -72.5589 -72.5583 -72.5583
    -5.6918  -5.3704   0.2394   0.3120   0.4175   0.4802   0.5135   0.5464
     0.6579   0.6734   0.7585   0.9739   1.8011   2.5918   3.3125   3.9608
     4.8965   5.2416

          k = 0.1239 0.5006 0.1511 (  2330 PWs)   bands (ev):

  -118.3886-118.3886 -72.5589 -72.5589 -72.5589 -72.5589 -72.5583 -72.5583
    -5.6413  -5.4132   0.2379   0.3185   0.3583   0.4593   0.4854   0.5315
     0.6723   0.6826   0.7748   0.9430   1.7145   2.3131   3.7755   4.2557
     4.9447   5.2091

          k = 0.1239 0.5006-0.3023 (  2334 PWs)   bands (ev):

  -118.3886-118.3886 -72.5589 -72.5589 -72.5589 -72.5589 -72.5583 -72.5583
    -5.5234  -5.5234   0.2523   0.2523   0.3915   0.3915   0.4946   0.4946
     0.6831   0.6831   0.8465   0.8465   1.8895   1.8895   4.3985   4.3985
     5.0376   5.0376

          k = 0.2477 0.4291-0.0000 (  2319 PWs)   bands (ev):

  -118.3886-118.3886 -72.5589 -72.5589 -72.5589 -72.5589 -72.5583 -72.5583
    -5.7002  -5.3663   0.2433   0.3413   0.4323   0.4441   0.5142   0.5932
     0.6112   0.6312   0.7560   1.0348   1.9152   2.7514   3.4183   3.5364
     4.8667   4.9658

          k = 0.2477 0.4291 0.1511 (  2325 PWs)   bands (ev):

  -118.3886-118.3886 -72.5589 -72.5589 -72.5589 -72.5589 -72.5583 -72.5583
    -5.6482  -5.4112   0.2675   0.3108   0.4052   0.4324   0.4795   0.5209
     0.6327   0.6644   0.7673   0.9635   1.8955   2.5064   3.5506   4.1056
     4.6031   5.2293

          k = 0.2477 0.4291-0.3023 (  2318 PWs)   bands (ev):

  -118.3886-118.3886 -72.5589 -72.5589 -72.5589 -72.5589 -72.5583 -72.5583
    -5.5262  -5.5262   0.2889   0.2889   0.3883   0.3883   0.4618   0.4618
     0.6662   0.6662   0.8386   0.8386   2.1021   2.1021   4.0158   4.0158
     5.0558   5.0558

          k = 0.2477 0.5721-0.0000 (  2336 PWs)   bands (ev):

  -118.3886-118.3886 -72.5589 -72.5589 -72.5589 -72.5589 -72.5583 -72.5583
    -5.5321  -5.3988   0.2348   0.3716   0.4436   0.5168   0.5525   0.6033
     0.6462   0.6545   0.8444   0.9206   2.0273   2.4043   2.9480   3.9471
     4.4967   4.6057

          k = 0.2477 0.5721 0.1511 (  2322 PWs)   bands (ev):

  -118.3886-118.3886 -72.5589 -72.5589 -72.5589 -72.5589 -72.5583 -72.5583
    -5.5063  -5.4115   0.2661   0.3476   0.3896   0.4768   0.5424   0.5680
     0.6483   0.6517   0.8832   0.9561   1.8500   2.1327   3.1610   4.2940
     4.4673   4.9195

          k = 0.2477 0.5721-0.3023 (  2324 PWs)   bands (ev):

  -118.3886-118.3886 -72.5589 -72.5589 -72.5589 -72.5589 -72.5583 -72.5583
    -5.4523  -5.4523   0.3135   0.3135   0.3782   0.3782   0.5418   0.5418
     0.6482   0.6482   0.9522   0.9522   1.8233   1.8233   3.6914   3.6914
     5.1345   5.1345

     highest occupied level (ev):     6.4469

!    total energy              =    -971.54037634 Ry
     estimated scf accuracy    <          9.0E-11 Ry

     The total energy is the sum of the following terms:
     one-electron contribution =    -915.91872058 Ry
     hartree contribution      =     471.26042908 Ry
     xc contribution           =    -101.36916479 Ry
     ewald contribution        =    -425.51292005 Ry

     convergence has been achieved in  10 iterations

     Forces acting on atoms (cartesian axes, Ry/au):

     atom    1 type  1   force =    -0.00000000   -0.00000000    0.00009197
     atom    2 type  1   force =     0.00000000    0.00000000    0.00009197
     atom    3 type  2   force =    -0.00000000   -0.00000000   -0.00009197
     atom    4 type  2   force =     0.00000000    0.00000000   -0.00009197

     Total force =     0.000184     Total SCF correction =     0.000004


     Computing stress (Cartesian axis) and pressure

          total   stress  (Ry/bohr**3)                   (kbar)     P=        0.87
   0.00000520  -0.00000000  -0.00000000            0.77       -0.00       -0.00
  -0.00000000   0.00000520  -0.00000000           -0.00        0.77       -0.00
   0.00000000   0.00000000   0.00000742            0.00        0.00        1.09


     Writing output data file ./zns.save/

     init_run     :      7.92s CPU      8.06s WALL (       2 calls)
     electrons    :    855.57s CPU    869.56s WALL (      20 calls)
     update_pot   :     26.34s CPU     26.39s WALL (      18 calls)
     forces       :     21.49s CPU     21.90s WALL (      20 calls)
     stress       :     60.65s CPU     61.50s WALL (      20 calls)

     Called by init_run:
     wfcinit      :      3.08s CPU      3.13s WALL (       2 calls)
     potinit      :      1.17s CPU      1.18s WALL (       2 calls)
     hinit0       :      3.31s CPU      3.31s WALL (       2 calls)

     Called by electrons:
     c_bands      :    663.83s CPU    666.99s WALL (     289 calls)
     sum_band     :    146.24s CPU    152.06s WALL (     289 calls)
     v_of_rho     :      7.20s CPU      7.59s WALL (     305 calls)
     newd         :     39.55s CPU     44.38s WALL (     305 calls)
     mix_rho      :      1.21s CPU      1.24s WALL (     289 calls)

     Called by c_bands:
     init_us_2    :     14.18s CPU     14.30s WALL (   18600 calls)
     cegterg      :    621.06s CPU    623.92s WALL (    8670 calls)

     Called by *egterg:
     cdiaghg      :     14.42s CPU     14.54s WALL (   27636 calls)
     h_psi        :    505.24s CPU    507.52s WALL (   28356 calls)
     s_psi        :     19.60s CPU     19.73s WALL (   28356 calls)
     g_psi        :      3.68s CPU      3.70s WALL (   19626 calls)

     Called by h_psi:
     h_psi:calbec :     33.21s CPU     33.35s WALL (   28356 calls)
     vloc_psi     :    451.37s CPU    453.43s WALL (   28356 calls)
     add_vuspsi   :     18.76s CPU     18.89s WALL (   28356 calls)

     General routines
     calbec       :     48.37s CPU     48.68s WALL (   40026 calls)
     fft          :      3.82s CPU      3.91s WALL (    4447 calls)
     ffts         :      0.38s CPU      0.39s WALL (     594 calls)
     fftw         :    495.77s CPU    498.45s WALL ( 1423646 calls)
     interpolate  :      0.54s CPU      0.54s WALL (     305 calls)

     Parallel routines

     PWSCF        :  16m14.86s CPU  16m30.53s WALL


   This run was terminated on:  22:27:10  10Jul2021            

=------------------------------------------------------------------------------=
   JOB DONE.
=------------------------------------------------------------------------------=
